------------------------------------------------------------
          Invoking FHI-aims ...

          When using FHI-aims, please cite the following reference:

            Volker Blum, Ralf Gehrke, Felix Hanke, Paula Havu,
            Ville Havu, Xinguo Ren, Karsten Reuter, and Matthias Scheffler,
            'Ab Initio Molecular Simulations with Numeric Atom-Centered Orbitals',
            Computer Physics Communications 180, 2175-2196 (2009)

          In addition, many other developments in FHI-aims are likely important for
          your particular application. A partial list of references is given at the end of
          this file. Thank you for giving credit to the authors of these developments.

          For any questions about FHI-aims, please visit our slack channel at

            https://fhi-aims.slack.com

          and our main development and support site at

            https://aims-git.rz-berlin.mpg.de .

          The latter site, in particular, has a wiki to collect information, as well
          as an issue tracker to log discussions, suggest improvements, and report issues
          or bugs. https://aims-git.rz-berlin.mpg.de is also the main development site
          of the project and all new and updated code versions can be obtained there.
          Please send an email to aims-coordinators@fhi-berlin.mpg.de and we will add
          you to these sites. They are for you and everyone is welcome there.

------------------------------------------------------------



  Date     :  20241106, Time     :  121541.040
  Time zero on CPU 1             :   0.360333000000000E+00  s.
  Internal wall clock time zero  :           500127341.040  s.

  FHI-aims created a unique identifier for this run for later identification
  aims_uuid : A5816BD7-4656-4410-A323-E1398E0B6E86

  Build configuration of the current instance of FHI-aims
  -------------------------------------------------------
  FHI-aims version      : 221103
  Commit number         : GITDIR-NOTFOUND
  CMake host system     : Linux-3.10.0-1160.59.1.el7.x86_64
  CMake version         : 3.17.5
  Fortran compiler      : /home/spack/spack/opt/spack/linux-centos7-broadwell/gcc-8.2.0/intel-oneapi-mpi-2021.13.1-tc3o22m5brhwlepjze7ymovtbug6ollk/mpi/2021.13/bin/mpiifort (Intel) version 20.2.8.20221119
  Fortran compiler flags: -O3 -ip -fp-model precise
  C compiler            : /home/spack/spack/opt/spack/linux-centos7-broadwell/gcc-8.2.0/intel-oneapi-compilers-2023.0.0-qdtyksft5ugoazragh7yusjezd4gp7hm/compiler/2023.0.0/linux/bin/intel64/icc (Intel) version 20.2.8.20221119
  C compiler flags      : -O3 -ip -fp-model precise -std=gnu99
  HIP compiler          :
  HIP compiler flags    :
  HIP GPU arch          :
  Using MPI
  Using ScaLAPACK
  Using LibXC
  Using i-PI
  Using RLSY
  Linking against: /home/spack/spack/opt/spack/linux-centos7-broadwell/gcc-8.2.0/intel-oneapi-mkl-2024.2.1-2ept5lpbp5bastej6jsrfm45y5ab2lpn/mkl/latest/lib/intel64/libmkl_intel_lp64.so
                   /home/spack/spack/opt/spack/linux-centos7-broadwell/gcc-8.2.0/intel-oneapi-mkl-2024.2.1-2ept5lpbp5bastej6jsrfm45y5ab2lpn/mkl/latest/lib/intel64/libmkl_sequential.so
                   /home/spack/spack/opt/spack/linux-centos7-broadwell/gcc-8.2.0/intel-oneapi-mkl-2024.2.1-2ept5lpbp5bastej6jsrfm45y5ab2lpn/mkl/latest/lib/intel64/libmkl_core.so
                   /home/spack/spack/opt/spack/linux-centos7-broadwell/gcc-8.2.0/intel-oneapi-mkl-2024.2.1-2ept5lpbp5bastej6jsrfm45y5ab2lpn/mkl/latest/lib/intel64/libmkl_blacs_intelmpi_lp64.so
                   /home/spack/spack/opt/spack/linux-centos7-broadwell/gcc-8.2.0/intel-oneapi-mkl-2024.2.1-2ept5lpbp5bastej6jsrfm45y5ab2lpn/mkl/latest/lib/intel64/libmkl_scalapack_lp64.so

  Using       56 parallel tasks.
  Task        0 on host f001 reporting.
  Task        1 on host f001 reporting.
  Task        2 on host f001 reporting.
  Task        3 on host f001 reporting.
  Task        4 on host f001 reporting.
  Task        5 on host f001 reporting.
  Task        6 on host f001 reporting.
  Task        7 on host f001 reporting.
  Task        8 on host f001 reporting.
  Task        9 on host f001 reporting.
  Task       10 on host f001 reporting.
  Task       11 on host f001 reporting.
  Task       12 on host f001 reporting.
  Task       13 on host f001 reporting.
  Task       14 on host f001 reporting.
  Task       15 on host f001 reporting.
  Task       16 on host f001 reporting.
  Task       17 on host f001 reporting.
  Task       18 on host f001 reporting.
  Task       19 on host f001 reporting.
  Task       20 on host f001 reporting.
  Task       21 on host f001 reporting.
  Task       22 on host f001 reporting.
  Task       23 on host f001 reporting.
  Task       24 on host f001 reporting.
  Task       25 on host f001 reporting.
  Task       26 on host f001 reporting.
  Task       27 on host f001 reporting.
  Task       28 on host f001 reporting.
  Task       29 on host f001 reporting.
  Task       30 on host f001 reporting.
  Task       31 on host f001 reporting.
  Task       32 on host f001 reporting.
  Task       33 on host f001 reporting.
  Task       34 on host f001 reporting.
  Task       35 on host f001 reporting.
  Task       36 on host f001 reporting.
  Task       37 on host f001 reporting.
  Task       38 on host f001 reporting.
  Task       39 on host f001 reporting.
  Task       40 on host f001 reporting.
  Task       41 on host f001 reporting.
  Task       42 on host f001 reporting.
  Task       43 on host f001 reporting.
  Task       44 on host f001 reporting.
  Task       45 on host f001 reporting.
  Task       46 on host f001 reporting.
  Task       47 on host f001 reporting.
  Task       48 on host f001 reporting.
  Task       49 on host f001 reporting.
  Task       50 on host f001 reporting.
  Task       51 on host f001 reporting.
  Task       52 on host f001 reporting.
  Task       53 on host f001 reporting.
  Task       54 on host f001 reporting.
  Task       55 on host f001 reporting.

  Performing system and environment tests:
  *** Environment variable OMP_NUM_THREADS is not set
  *** For performance reasons you might want to set it to 1
  | Checking for ScaLAPACK...
  | Testing pdtran()...
  | All pdtran() tests passed.

  Obtaining array dimensions for all initial allocations:
  
  -----------------------------------------------------------------------
  Parsing control.in (first pass over file, find array dimensions only).
  The contents of control.in will be repeated verbatim below
  unless switched off by setting 'verbatim_writeout .false.' .
  in the first line of control.in .
  -----------------------------------------------------------------------
  
  #=====================================================
  #FHI-aims file: ./control.in
  #Created using the Atomic Simulation Environment (ASE)
  #
  #List of parameters used to initialize the calculator:
  #=====================================================
  fo_folders                         f_4Oog5Z f_NEKyGD
  packed_matrix_format               index
  relativistic                       zora scalar 1e-12
  sc_accuracy_eev                    1E-2
  fo_dft                             final
  charge                             1
  sc_iter_limit                      200
  n_max_pulay                        10
  occupation_type                    gaussian 0.01
  sc_accuracy_etot                   1E-6
  xc                                 blyp
  mixer                              pulay
  sc_accuracy_rho                    1E-4
  fo_orbitals                        93.0 93.0 1 1 hole
  spin                               collinear
  fo_flavour                         None
  charge_mix_param                   0.5
  default_initial_moment             1
  #=======================================================
  
  ################################################################################
  #
  #  FHI-aims code project
  #  VB, Fritz-Haber Institut, 2009
  #
  #  Suggested "light" defaults for H atom (to be pasted into control.in file)
  #  Be sure to double-check any results obtained with these settings for post-processing,
  #  e.g., with the "tight" defaults and larger basis sets.
  #
  ################################################################################
    species        H
  #     global species definitions
      nucleus             1
      mass                1.00794
  #
      l_hartree           4
  #
      cut_pot             3.5  1.5  1.0
      basis_dep_cutoff    1e-4
  #
      radial_base         24 5.0
      radial_multiplier   1
      angular_grids       specified
        division   0.2421   50
        division   0.3822  110
        division   0.4799  194
        division   0.5341  302
  #      division   0.5626  434
  #      division   0.5922  590
  #      division   0.6542  770
  #      division   0.6868 1202
  #      outer_grid  770
        outer_grid  302
  ################################################################################
  #
  #  Definition of "minimal" basis
  #
  ################################################################################
  #     valence basis states
      valence      1  s   1.
  #     ion occupancy
      ion_occ      1  s   0.5
  ################################################################################
  #
  #  Suggested additional basis functions. For production calculations,
  #  uncomment them one after another (the most important basis functions are
  #  listed first).
  #
  #  Basis constructed for dimers: 0.5 A, 0.7 A, 1.0 A, 1.5 A, 2.5 A
  #
  ################################################################################
  #  "First tier" - improvements: -1014.90 meV to -62.69 meV
       hydro 2 s 2.1
       hydro 2 p 3.5
  #  "Second tier" - improvements: -12.89 meV to -1.83 meV
  #     hydro 1 s 0.85
  #     hydro 2 p 3.7
  #     hydro 2 s 1.2
  #     hydro 3 d 7
  #  "Third tier" - improvements: -0.25 meV to -0.12 meV
  #     hydro 4 f 11.2
  #     hydro 3 p 4.8
  #     hydro 4 d 9
  #     hydro 3 s 3.2
  ################################################################################
  #
  #  FHI-aims code project
  #  VB, Fritz-Haber Institut, 2009
  #
  #  Suggested "light" defaults for C atom (to be pasted into control.in file)
  #  Be sure to double-check any results obtained with these settings for post-processing,
  #  e.g., with the "tight" defaults and larger basis sets.
  #
  ################################################################################
    species        C
  #     global species definitions
      nucleus             6
      mass                12.0107
  #
      l_hartree           4
  #
      cut_pot             3.5  1.5  1.0
      basis_dep_cutoff    1e-4
  #
      radial_base         34 5.0
      radial_multiplier   1
      angular_grids specified
        division   0.3326   50
        division   0.5710  110
        division   0.7727  194
        division   0.8772  302
  #      division   0.9334  434
  #      division   0.9625  590
  #      division   0.9924  770
  #      division   1.0230  974
  #      division   1.4589 1202
  #     outer_grid  974
       outer_grid 302
  ################################################################################
  #
  #  Definition of "minimal" basis
  #
  ################################################################################
  #     valence basis states
      valence      2  s   2.
      valence      2  p   2.
  #     ion occupancy
      ion_occ      2  s   1.
      ion_occ      2  p   1.
  ################################################################################
  #
  #  Suggested additional basis functions. For production calculations,
  #  uncomment them one after another (the most important basis functions are
  #  listed first).
  #
  #  Constructed for dimers: 1.0 A, 1.25 A, 1.5 A, 2.0 A, 3.0 A
  #
  ################################################################################
  #  "First tier" - improvements: -1214.57 meV to -155.61 meV
       hydro 2 p 1.7
       hydro 3 d 6
       hydro 2 s 4.9
  #  "Second tier" - improvements: -67.75 meV to -5.23 meV
  #     hydro 4 f 9.8
  #     hydro 3 p 5.2
  #     hydro 3 s 4.3
  #     hydro 5 g 14.4
  #     hydro 3 d 6.2
  #  "Third tier" - improvements: -2.43 meV to -0.60 meV
  #     hydro 2 p 5.6
  #     hydro 2 s 1.4
  #     hydro 3 d 4.9
  #     hydro 4 f 11.2
  #  "Fourth tier" - improvements: -0.39 meV to -0.18 meV
  #     hydro 2 p 2.1
  #     hydro 5 g 16.4
  #     hydro 4 d 13.2
  #     hydro 3 s 13.6
  #     hydro 4 f 17.6
  #  Further basis functions - improvements: -0.08 meV and below
  #     hydro 3 s 2
  #     hydro 3 p 6
  #     hydro 4 d 20
  
  -----------------------------------------------------------------------
  Completed first pass over input file control.in .
  -----------------------------------------------------------------------
  
  
  -----------------------------------------------------------------------
  Parsing geometry.in (first pass over file, find array dimensions only).
  The contents of geometry.in will be repeated verbatim below
  unless switched off by setting 'verbatim_writeout .false.' .
  in the first line of geometry.in .
  -----------------------------------------------------------------------
  
  #=======================================================
  #FHI-aims file: ./geometry.in
  #Created using the Atomic Simulation Environment (ASE)
  #=======================================================
  atom 40.1428620100000018 24.6408166441903873 21.1718135008135242 H
  atom 40.8897956699999980 22.3015178632340678 20.8772070003797268 H
  atom 42.0686900200000053 20.3221204639631949 21.7553653467919226 H
  atom 40.6862433099999947 24.1401651065340417 21.9695834477991276 C
  atom 41.0928775699999989 22.8297166400775176 21.8085802027503739 C
  atom 40.6797352800000027 25.8865240369193579 23.2225102478761478 H
  atom 43.3557901700000059 19.2067562329857466 23.5782572211132724 H
  atom 43.8788632800000045 20.4318032086146779 25.6556746192529062 H
  atom 43.8254660700000045 22.4323644849404964 27.0195600551581840 H
  atom 43.7058908200000005 24.9626358873010759 28.3718967350894999 H
  atom 41.4409395600000039 27.0518877946788479 25.2695838558096888 H
  atom 43.7277672099999961 26.8284793303754689 29.5652681857321724 H
  atom 40.9901604699999993 24.8455034119923681 23.1396309402983071 C
  atom 41.7168643500000016 24.2575936482347991 24.1794718703459637 C
  atom 41.8162098199999974 22.1790539817258967 22.8373252692152029 C
  atom 42.2789072300000015 20.8438037170337545 22.6894559035093835 C
  atom 43.0012985599999951 20.2292463726381051 23.6937447808528852 C
  atom 43.2978451799999959 20.9215827004896333 24.8764732603038681 C
  atom 42.8817233099999982 22.2398701704749300 25.0637442640384940 C
  atom 43.2428797700000018 22.9511126032349146 26.2573421608767354 C
  atom 42.8867415499999964 24.2613573481804359 26.4122313586451583 C
  atom 43.1520809900000017 25.1944444314711440 27.4686028609692698 C
  atom 42.5920767700000056 26.4120228972911981 27.1114972105587384 C
  atom 41.9570341800000008 26.2596778939356312 25.8030910925675876 C
  atom 42.1245179400000040 22.8932194081977372 24.0354520899647994 C
  atom 42.1202837999999957 24.9605986191083389 25.3744284443576120 C
  atom 42.6202259599999991 27.6462613704467586 27.8870754303786939 C
  atom 43.2457809400000031 27.7117357088846035 29.1486071858872933 C
  atom 43.7845360499999998 28.8685028190056627 30.8410660515615476 H
  atom 41.5852923700000048 30.8875196959377014 27.7174672298983573 H
  atom 41.5284451200000007 28.8413386525913999 26.4450660570024993 H
  atom 43.9821292499999998 30.5623828657880807 31.7796855321903671 H
  atom 43.9938907500000056 32.6096968256241411 33.0978288365909350 H
  atom 42.7427807899999976 34.6280662183812922 32.3251944173133694 H
  atom 41.4722251499999999 34.5249869290219706 30.1712382050717913 H
  atom 41.4425861699999984 32.4807088517011664 28.8512833311066785 H
  atom 43.2761256099999940 28.8883009933495494 29.8800283975715111 C
  atom 42.6810721199999961 30.0784091092028376 29.4076616336169359 C
  atom 42.0595160499999992 30.0084343191929577 28.1472621090861743 C
  atom 42.0279168200000015 28.8306414307017427 27.4115384196861669 C
  atom 42.6997336999999959 31.3285499468914139 30.2015819952778841 C
  atom 43.4087169200000034 31.4119491997827254 31.4166922806950737 C
  atom 43.4197727300000054 32.5805919806061084 32.1723432353050498 C
  atom 42.7234135200000011 33.7102515533245892 31.7382458784014467 C
  atom 42.0174098800000024 33.6538329537697081 30.5351372413493571 C
  atom 42.0070597600000042 32.4821691007454660 29.7810714101083533 C
  atom 42.4664639500000050 37.1084028588534451 37.0927926187992938 H
  atom 44.6657076300000000 35.0893859819214100 40.2163914404624805 H
  atom 44.7225548800000041 37.1355670252677044 41.4887926133583420 H
  atom 42.2688707500000049 35.4145228120710271 36.1541731381704707 H
  atom 42.2571092499999992 33.3672088522349668 34.8360298337698993 H
  atom 43.5082192100000000 31.3488394594778157 35.6086642530474720 H
  atom 44.7787748500000049 31.4519187488371337 37.7626204652890465 H
  atom 44.8084138299999992 33.4961968261579415 39.0825753392541628 H
  atom 42.9748743899999965 37.0886046845095549 38.0538302727893267 C
  atom 43.5699278799999945 35.8984965686562703 38.5261970367439019 C
  atom 44.1914839500000056 35.9684713586661502 39.7865965612746635 C
  atom 44.2230831800000033 37.1462642471573616 40.5223202506746674 C
  atom 43.5512662999999947 34.6483557309676939 37.7322766750829501 C
  atom 42.8422830800000014 34.5649564780763825 36.5171663896657677 C
  atom 42.8312272699999994 33.3963136972529995 35.7615154350557845 C
  atom 43.5275864799999965 32.2665535245345154 36.1956127919593911 C
  atom 44.2335901200000023 32.3230727240893998 37.3987214290114807 C
  atom 44.2439402400000006 33.4947365771136418 38.1527872602524809 C
  atom 45.5712647200000021 40.0903816409397535 44.7113484224846900 H
  atom 42.8952098299999989 46.7701494448733683 44.3556014492475654 H
  atom 42.3721367200000003 45.5451024692444335 42.2781840511079281 H
  atom 42.4255339300000003 43.5445411929186150 40.9142986152026538 H
  atom 42.5451091799999972 41.0142697905580320 39.5619619352713414 H
  atom 44.8100604400000009 38.9250178831802671 42.6642748145511490 H
  atom 42.5232327900000016 39.1484263474836425 38.3685904846286689 H
  atom 45.2608395299999984 41.1314022658667398 44.7942277300625307 C
  atom 44.5341356499999961 41.7193120296243123 43.7543868000148706 C
  atom 44.4347901800000002 43.7978516961332147 45.0965334011456349 C
  atom 43.9720927700000033 45.1331019608253570 45.2444027668514508 C
  atom 43.2497014399999955 45.7476593052210063 44.2401138895079526 C
  atom 42.9531548199999946 45.0553229773694781 43.0573854100569662 C
  atom 43.3692766899999995 43.7370355073841779 42.8701144063223438 C
  atom 43.0081202300000029 43.0257930746241968 41.6765165094841024 C
  atom 43.3642584500000012 41.7155483296786755 41.5216273117156760 C
  atom 43.0989190100000030 40.7824612463879674 40.4652558093915644 C
  atom 43.6589232299999992 39.5648827805679133 40.8223614598020959 C
  atom 44.2939658199999968 39.7172277839234766 42.1307675777932502 C
  atom 44.1264820600000007 43.0836862696613707 43.8984065803960419 C
  atom 44.1307161999999948 41.0163070587507690 42.5594302260032293 C
  atom 43.6307740400000057 38.3306443074123564 40.0467832399821475 C
  atom 43.0052190600000017 38.2651699689745115 38.7852514844735481 C
  atom 46.1081379900000030 41.3360890336687206 46.7620451695473136 H
  atom 45.3612043299999996 43.6753878146250401 47.0566516699811146 H
  atom 44.1823099799999994 45.6547852138959129 46.1784933235689152 H
  atom 45.5647566899999958 41.8367405713250662 45.9642752225617102 C
  atom 45.1581224299999988 43.1471890377815868 46.1252784676104639 C
  
  -----------------------------------------------------------------------
  Completed first pass over input file geometry.in .
  -----------------------------------------------------------------------
  

  Basic array size parameters:
  | Number of species                 :        2
  | Number of atoms                   :       92
  | Max. basis fn. angular momentum   :        2
  | Max. atomic/ionic basis occupied n:        2
  | Max. number of basis fn. types    :        2
  | Max. radial fns per species/type  :        3
  | Max. logarithmic grid size        :     1277
  | Max. radial integration grid size :       34
  | Max. angular integration grid size:      302
  | Max. angular grid division number :        8
  | Radial grid for Hartree potential :     1277
  | Number of spin channels           :        2

------------------------------------------------------------
          Reading file control.in.
------------------------------------------------------------
  Using packed matrix format  2
  Scalar relativistic treatment of kinetic energy: ZORA.
  Threshold value for ZORA:   0.100000E-11
  Convergence accuracy of sum of eigenvalues:  0.1000E-01
  No previous restart file was found for FO_DFT run:
  ... Generating new file from restart.f1 and restart.f2!
  Charged system requested: Charge =   0.100000E+01.
  Maximum number of s.-c. iterations  :   200
  Pulay mixing - number of memorized iterations:   10
  Occupation type: Gaussian broadening, width =   0.100000E-01 eV.
  Convergence accuracy of total energy:  0.1000E-05
  XC: Using BLYP gradient-corrected functional.
  Using pulay charge density mixing.
  Convergence accuracy of self-consistent charge density:  0.1000E-03
  Spin treatment: Spin density functional theory - collinear spins.
  Charge density mixing - mixing parameter:     0.5000
  Initial spin moment per atom:   1.0000
 
  Reading configuration options for species H                   .
  | Found nuclear charge :   1.0000
  | Found atomic mass :    1.00794000000000      amu
  | Found l_max for Hartree potential  :   4
  | Found cutoff potl. onset [A], width [A], scale factor :    3.50000    1.50000    1.00000
  | Threshold for basis-dependent cutoff potential is   0.100000E-03
  | Found data for basic radial integration grid :    24 points, outermost radius =    5.000 A
  | Found multiplier for basic radial grid :   1
  | Found angular grid specification: user-specified.
  | Specified grid contains     5 separate shells.
  | Check grid settings after all constraints further below.
  | Found free-atom valence shell :  1 s   1.000
  | No ionic wave fns used. Skipping ion_occ.
  | Found hydrogenic basis function :  2 s   2.100
  | Found hydrogenic basis function :  2 p   3.500
  Species H                   : Missing cutoff potential type.
  Defaulting to exp(1/x)/(1-x)^2 type cutoff potential.
  Species H : No 'logarithmic' tag. Using default grid for free atom:
  | Default logarithmic grid data [bohr] : 0.1000E-03 0.1000E+03 0.1012E+01
  Species H : On-site basis accuracy parameter (for Gram-Schmidt orthonormalisation) not specified.
  Using default value basis_acc =  0.1000000E-03.
  Species H                   : Using default innermost maximum threshold i_radial=  2 for radial functions.
  Species H                   : Default cutoff onset for free atom density etc. : 0.35000000E+01 AA.
  Species H                   : Basic radial grid will be enhanced according to radial_multiplier =   1, to contain    24 grid points.
 
  Reading configuration options for species C                   .
  | Found nuclear charge :   6.0000
  | Found atomic mass :    12.0107000000000      amu
  | Found l_max for Hartree potential  :   4
  | Found cutoff potl. onset [A], width [A], scale factor :    3.50000    1.50000    1.00000
  | Threshold for basis-dependent cutoff potential is   0.100000E-03
  | Found data for basic radial integration grid :    34 points, outermost radius =    5.000 A
  | Found multiplier for basic radial grid :   1
  | Found angular grid specification: user-specified.
  | Specified grid contains     5 separate shells.
  | Check grid settings after all constraints further below.
  | Found free-atom valence shell :  2 s   2.000
  | Found free-atom valence shell :  2 p   2.000
  | No ionic wave fns used. Skipping ion_occ.
  | No ionic wave fns used. Skipping ion_occ.
  | Found hydrogenic basis function :  2 p   1.700
  | Found hydrogenic basis function :  3 d   6.000
  | Found hydrogenic basis function :  2 s   4.900
  Species C                   : Missing cutoff potential type.
  Defaulting to exp(1/x)/(1-x)^2 type cutoff potential.
  Species C : No 'logarithmic' tag. Using default grid for free atom:
  | Default logarithmic grid data [bohr] : 0.1000E-03 0.1000E+03 0.1012E+01
  Species C : On-site basis accuracy parameter (for Gram-Schmidt orthonormalisation) not specified.
  Using default value basis_acc =  0.1000000E-03.
  Species C                   : Using default innermost maximum threshold i_radial=  2 for radial functions.
  Species C                   : Default cutoff onset for free atom density etc. : 0.35000000E+01 AA.
  Species C                   : Basic radial grid will be enhanced according to radial_multiplier =   1, to contain    34 grid points.
 
  Finished reading input file 'control.in'.
 
------------------------------------------------------------


------------------------------------------------------------
          Reading geometry description geometry.in.
------------------------------------------------------------
  | The smallest distance between any two atoms is         1.08461069 AA.
  | The first atom of this pair is atom number                     69 .
  | The second atom of this pair is atom number                    81 .
  Input structure read successfully.
  The structure contains       92 atoms,  and a total of        371.000 electrons.

  Input geometry:
  | No unit cell requested.
  | Atomic structure:
  |       Atom                x [A]            y [A]            z [A]
  |    1: Species H            40.14286201       24.64081664       21.17181350
  |    2: Species H            40.88979567       22.30151786       20.87720700
  |    3: Species H            42.06869002       20.32212046       21.75536535
  |    4: Species C            40.68624331       24.14016511       21.96958345
  |    5: Species C            41.09287757       22.82971664       21.80858020
  |    6: Species H            40.67973528       25.88652404       23.22251025
  |    7: Species H            43.35579017       19.20675623       23.57825722
  |    8: Species H            43.87886328       20.43180321       25.65567462
  |    9: Species H            43.82546607       22.43236448       27.01956006
  |   10: Species H            43.70589082       24.96263589       28.37189674
  |   11: Species H            41.44093956       27.05188779       25.26958386
  |   12: Species H            43.72776721       26.82847933       29.56526819
  |   13: Species C            40.99016047       24.84550341       23.13963094
  |   14: Species C            41.71686435       24.25759365       24.17947187
  |   15: Species C            41.81620982       22.17905398       22.83732527
  |   16: Species C            42.27890723       20.84380372       22.68945590
  |   17: Species C            43.00129856       20.22924637       23.69374478
  |   18: Species C            43.29784518       20.92158270       24.87647326
  |   19: Species C            42.88172331       22.23987017       25.06374426
  |   20: Species C            43.24287977       22.95111260       26.25734216
  |   21: Species C            42.88674155       24.26135735       26.41223136
  |   22: Species C            43.15208099       25.19444443       27.46860286
  |   23: Species C            42.59207677       26.41202290       27.11149721
  |   24: Species C            41.95703418       26.25967789       25.80309109
  |   25: Species C            42.12451794       22.89321941       24.03545209
  |   26: Species C            42.12028380       24.96059862       25.37442844
  |   27: Species C            42.62022596       27.64626137       27.88707543
  |   28: Species C            43.24578094       27.71173571       29.14860719
  |   29: Species H            43.78453605       28.86850282       30.84106605
  |   30: Species H            41.58529237       30.88751970       27.71746723
  |   31: Species H            41.52844512       28.84133865       26.44506606
  |   32: Species H            43.98212925       30.56238287       31.77968553
  |   33: Species H            43.99389075       32.60969683       33.09782884
  |   34: Species H            42.74278079       34.62806622       32.32519442
  |   35: Species H            41.47222515       34.52498693       30.17123821
  |   36: Species H            41.44258617       32.48070885       28.85128333
  |   37: Species C            43.27612561       28.88830099       29.88002840
  |   38: Species C            42.68107212       30.07840911       29.40766163
  |   39: Species C            42.05951605       30.00843432       28.14726211
  |   40: Species C            42.02791682       28.83064143       27.41153842
  |   41: Species C            42.69973370       31.32854995       30.20158200
  |   42: Species C            43.40871692       31.41194920       31.41669228
  |   43: Species C            43.41977273       32.58059198       32.17234324
  |   44: Species C            42.72341352       33.71025155       31.73824588
  |   45: Species C            42.01740988       33.65383295       30.53513724
  |   46: Species C            42.00705976       32.48216910       29.78107141
  |   47: Species H            42.46646395       37.10840286       37.09279262
  |   48: Species H            44.66570763       35.08938598       40.21639144
  |   49: Species H            44.72255488       37.13556703       41.48879261
  |   50: Species H            42.26887075       35.41452281       36.15417314
  |   51: Species H            42.25710925       33.36720885       34.83602983
  |   52: Species H            43.50821921       31.34883946       35.60866425
  |   53: Species H            44.77877485       31.45191875       37.76262047
  |   54: Species H            44.80841383       33.49619683       39.08257534
  |   55: Species C            42.97487439       37.08860468       38.05383027
  |   56: Species C            43.56992788       35.89849657       38.52619704
  |   57: Species C            44.19148395       35.96847136       39.78659656
  |   58: Species C            44.22308318       37.14626425       40.52232025
  |   59: Species C            43.55126630       34.64835573       37.73227668
  |   60: Species C            42.84228308       34.56495648       36.51716639
  |   61: Species C            42.83122727       33.39631370       35.76151544
  |   62: Species C            43.52758648       32.26655352       36.19561279
  |   63: Species C            44.23359012       32.32307272       37.39872143
  |   64: Species C            44.24394024       33.49473658       38.15278726
  |   65: Species H            45.57126472       40.09038164       44.71134842
  |   66: Species H            42.89520983       46.77014944       44.35560145
  |   67: Species H            42.37213672       45.54510247       42.27818405
  |   68: Species H            42.42553393       43.54454119       40.91429862
  |   69: Species H            42.54510918       41.01426979       39.56196194
  |   70: Species H            44.81006044       38.92501788       42.66427481
  |   71: Species H            42.52323279       39.14842635       38.36859048
  |   72: Species C            45.26083953       41.13140227       44.79422773
  |   73: Species C            44.53413565       41.71931203       43.75438680
  |   74: Species C            44.43479018       43.79785170       45.09653340
  |   75: Species C            43.97209277       45.13310196       45.24440277
  |   76: Species C            43.24970144       45.74765931       44.24011389
  |   77: Species C            42.95315482       45.05532298       43.05738541
  |   78: Species C            43.36927669       43.73703551       42.87011441
  |   79: Species C            43.00812023       43.02579307       41.67651651
  |   80: Species C            43.36425845       41.71554833       41.52162731
  |   81: Species C            43.09891901       40.78246125       40.46525581
  |   82: Species C            43.65892323       39.56488278       40.82236146
  |   83: Species C            44.29396582       39.71722778       42.13076758
  |   84: Species C            44.12648206       43.08368627       43.89840658
  |   85: Species C            44.13071620       41.01630706       42.55943023
  |   86: Species C            43.63077404       38.33064431       40.04678324
  |   87: Species C            43.00521906       38.26516997       38.78525148
  |   88: Species H            46.10813799       41.33608903       46.76204517
  |   89: Species H            45.36120433       43.67538781       47.05665167
  |   90: Species H            44.18230998       45.65478521       46.17849332
  |   91: Species C            45.56475669       41.83674057       45.96427522
  |   92: Species C            45.15812243       43.14718904       46.12527847

  Initial moments and charges:
  |  Atom   Moment         Charge        Species
  |     1   0.100000E+01   0.000000E+00   H
  |     2   0.100000E+01   0.000000E+00   H
  |     3   0.100000E+01   0.000000E+00   H
  |     4   0.100000E+01   0.000000E+00   C
  |     5   0.100000E+01   0.000000E+00   C
  |     6   0.100000E+01   0.000000E+00   H
  |     7   0.100000E+01   0.000000E+00   H
  |     8   0.100000E+01   0.000000E+00   H
  |     9   0.100000E+01   0.000000E+00   H
  |    10   0.100000E+01   0.000000E+00   H
  |    11   0.100000E+01   0.000000E+00   H
  |    12   0.100000E+01   0.000000E+00   H
  |    13   0.100000E+01   0.000000E+00   C
  |    14   0.100000E+01   0.000000E+00   C
  |    15   0.100000E+01   0.000000E+00   C
  |    16   0.100000E+01   0.000000E+00   C
  |    17   0.100000E+01   0.000000E+00   C
  |    18   0.100000E+01   0.000000E+00   C
  |    19   0.100000E+01   0.000000E+00   C
  |    20   0.100000E+01   0.000000E+00   C
  |    21   0.100000E+01   0.000000E+00   C
  |    22   0.100000E+01   0.000000E+00   C
  |    23   0.100000E+01   0.000000E+00   C
  |    24   0.100000E+01   0.000000E+00   C
  |    25   0.100000E+01   0.000000E+00   C
  |    26   0.100000E+01   0.000000E+00   C
  |    27   0.100000E+01   0.000000E+00   C
  |    28   0.100000E+01   0.000000E+00   C
  |    29   0.100000E+01   0.000000E+00   H
  |    30   0.100000E+01   0.000000E+00   H
  |    31   0.100000E+01   0.000000E+00   H
  |    32   0.100000E+01   0.000000E+00   H
  |    33   0.100000E+01   0.000000E+00   H
  |    34   0.100000E+01   0.000000E+00   H
  |    35   0.100000E+01   0.000000E+00   H
  |    36   0.100000E+01   0.000000E+00   H
  |    37   0.100000E+01   0.000000E+00   C
  |    38   0.100000E+01   0.000000E+00   C
  |    39   0.100000E+01   0.000000E+00   C
  |    40   0.100000E+01   0.000000E+00   C
  |    41   0.100000E+01   0.000000E+00   C
  |    42   0.100000E+01   0.000000E+00   C
  |    43   0.100000E+01   0.000000E+00   C
  |    44   0.100000E+01   0.000000E+00   C
  |    45   0.100000E+01   0.000000E+00   C
  |    46   0.100000E+01   0.000000E+00   C
  |    47   0.100000E+01   0.000000E+00   H
  |    48   0.100000E+01   0.000000E+00   H
  |    49   0.100000E+01   0.000000E+00   H
  |    50   0.100000E+01   0.000000E+00   H
  |    51   0.100000E+01   0.000000E+00   H
  |    52   0.100000E+01   0.000000E+00   H
  |    53   0.100000E+01   0.000000E+00   H
  |    54   0.100000E+01   0.000000E+00   H
  |    55   0.100000E+01   0.000000E+00   C
  |    56   0.100000E+01   0.000000E+00   C
  |    57   0.100000E+01   0.000000E+00   C
  |    58   0.100000E+01   0.000000E+00   C
  |    59   0.100000E+01   0.000000E+00   C
  |    60   0.100000E+01   0.000000E+00   C
  |    61   0.100000E+01   0.000000E+00   C
  |    62   0.100000E+01   0.000000E+00   C
  |    63   0.100000E+01   0.000000E+00   C
  |    64   0.100000E+01   0.000000E+00   C
  |    65   0.100000E+01   0.000000E+00   H
  |    66   0.100000E+01   0.000000E+00   H
  |    67   0.100000E+01   0.000000E+00   H
  |    68   0.100000E+01   0.000000E+00   H
  |    69   0.100000E+01   0.000000E+00   H
  |    70   0.100000E+01   0.000000E+00   H
  |    71   0.100000E+01   0.000000E+00   H
  |    72   0.100000E+01   0.000000E+00   C
  |    73   0.100000E+01   0.000000E+00   C
  |    74   0.100000E+01   0.000000E+00   C
  |    75   0.100000E+01   0.000000E+00   C
  |    76   0.100000E+01   0.000000E+00   C
  |    77   0.100000E+01   0.000000E+00   C
  |    78   0.100000E+01   0.000000E+00   C
  |    79   0.100000E+01   0.000000E+00   C
  |    80   0.100000E+01   0.000000E+00   C
  |    81   0.100000E+01   0.000000E+00   C
  |    82   0.100000E+01   0.000000E+00   C
  |    83   0.100000E+01   0.000000E+00   C
  |    84   0.100000E+01   0.000000E+00   C
  |    85   0.100000E+01   0.000000E+00   C
  |    86   0.100000E+01   0.000000E+00   C
  |    87   0.100000E+01   0.000000E+00   C
  |    88   0.100000E+01   0.000000E+00   H
  |    89   0.100000E+01   0.000000E+00   H
  |    90   0.100000E+01   0.000000E+00   H
  |    91   0.100000E+01   0.000000E+00   C
  |    92   0.100000E+01   0.000000E+00   C

 
  Finished reading input file 'geometry.in'.
 

 
  Consistency checks for stacksize environment parameter are next.
 
  | Maximum stacksize for task 0: unlimited
  | Maximum stacksize for task 1: unlimited
  | Maximum stacksize for task 2: unlimited
  | Maximum stacksize for task 3: unlimited
  | Maximum stacksize for task 4: unlimited
  | Maximum stacksize for task 5: unlimited
  | Maximum stacksize for task 6: unlimited
  | Maximum stacksize for task 7: unlimited
  | Maximum stacksize for task 8: unlimited
  | Maximum stacksize for task 9: unlimited
  | Maximum stacksize for task 10: unlimited
  | Maximum stacksize for task 11: unlimited
  | Maximum stacksize for task 12: unlimited
  | Maximum stacksize for task 13: unlimited
  | Maximum stacksize for task 14: unlimited
  | Maximum stacksize for task 15: unlimited
  | Maximum stacksize for task 16: unlimited
  | Maximum stacksize for task 17: unlimited
  | Maximum stacksize for task 18: unlimited
  | Maximum stacksize for task 19: unlimited
  | Maximum stacksize for task 20: unlimited
  | Maximum stacksize for task 21: unlimited
  | Maximum stacksize for task 22: unlimited
  | Maximum stacksize for task 23: unlimited
  | Maximum stacksize for task 24: unlimited
  | Maximum stacksize for task 25: unlimited
  | Maximum stacksize for task 26: unlimited
  | Maximum stacksize for task 27: unlimited
  | Maximum stacksize for task 28: unlimited
  | Maximum stacksize for task 29: unlimited
  | Maximum stacksize for task 30: unlimited
  | Maximum stacksize for task 31: unlimited
  | Maximum stacksize for task 32: unlimited
  | Maximum stacksize for task 33: unlimited
  | Maximum stacksize for task 34: unlimited
  | Maximum stacksize for task 35: unlimited
  | Maximum stacksize for task 36: unlimited
  | Maximum stacksize for task 37: unlimited
  | Maximum stacksize for task 38: unlimited
  | Maximum stacksize for task 39: unlimited
  | Maximum stacksize for task 40: unlimited
  | Maximum stacksize for task 41: unlimited
  | Maximum stacksize for task 42: unlimited
  | Maximum stacksize for task 43: unlimited
  | Maximum stacksize for task 44: unlimited
  | Maximum stacksize for task 45: unlimited
  | Maximum stacksize for task 46: unlimited
  | Maximum stacksize for task 47: unlimited
  | Maximum stacksize for task 48: unlimited
  | Maximum stacksize for task 49: unlimited
  | Maximum stacksize for task 50: unlimited
  | Maximum stacksize for task 51: unlimited
  | Maximum stacksize for task 52: unlimited
  | Maximum stacksize for task 53: unlimited
  | Maximum stacksize for task 54: unlimited
  | Maximum stacksize for task 55: unlimited
  | Current stacksize for task 0: unlimited
  | Current stacksize for task 1: unlimited
  | Current stacksize for task 2: unlimited
  | Current stacksize for task 3: unlimited
  | Current stacksize for task 4: unlimited
  | Current stacksize for task 5: unlimited
  | Current stacksize for task 6: unlimited
  | Current stacksize for task 7: unlimited
  | Current stacksize for task 8: unlimited
  | Current stacksize for task 9: unlimited
  | Current stacksize for task 10: unlimited
  | Current stacksize for task 11: unlimited
  | Current stacksize for task 12: unlimited
  | Current stacksize for task 13: unlimited
  | Current stacksize for task 14: unlimited
  | Current stacksize for task 15: unlimited
  | Current stacksize for task 16: unlimited
  | Current stacksize for task 17: unlimited
  | Current stacksize for task 18: unlimited
  | Current stacksize for task 19: unlimited
  | Current stacksize for task 20: unlimited
  | Current stacksize for task 21: unlimited
  | Current stacksize for task 22: unlimited
  | Current stacksize for task 23: unlimited
  | Current stacksize for task 24: unlimited
  | Current stacksize for task 25: unlimited
  | Current stacksize for task 26: unlimited
  | Current stacksize for task 27: unlimited
  | Current stacksize for task 28: unlimited
  | Current stacksize for task 29: unlimited
  | Current stacksize for task 30: unlimited
  | Current stacksize for task 31: unlimited
  | Current stacksize for task 32: unlimited
  | Current stacksize for task 33: unlimited
  | Current stacksize for task 34: unlimited
  | Current stacksize for task 35: unlimited
  | Current stacksize for task 36: unlimited
  | Current stacksize for task 37: unlimited
  | Current stacksize for task 38: unlimited
  | Current stacksize for task 39: unlimited
  | Current stacksize for task 40: unlimited
  | Current stacksize for task 41: unlimited
  | Current stacksize for task 42: unlimited
  | Current stacksize for task 43: unlimited
  | Current stacksize for task 44: unlimited
  | Current stacksize for task 45: unlimited
  | Current stacksize for task 46: unlimited
  | Current stacksize for task 47: unlimited
  | Current stacksize for task 48: unlimited
  | Current stacksize for task 49: unlimited
  | Current stacksize for task 50: unlimited
  | Current stacksize for task 51: unlimited
  | Current stacksize for task 52: unlimited
  | Current stacksize for task 53: unlimited
  | Current stacksize for task 54: unlimited
  | Current stacksize for task 55: unlimited
 
  Consistency checks for the contents of control.in are next.
 
  MPI_IN_PLACE appears to work with this MPI implementation.
  | Keeping use_mpi_in_place .true. (see manual).
  Target number of points in a grid batch is not set. Defaulting to  100
  Method for grid partitioning is not set. Defaulting to parallel hash+maxmin partitioning.
  Batch size limit is not set. Defaulting to    200
  By default, will store active basis functions for each batch.
  If in need of memory, prune_basis_once .false. can be used to disable this option.
  communication_type for Hartree potential was not specified.
  Defaulting to calc_hartree .
  Pulay mixer: Number of initial linear mixing iterations not set.
  Defaulting to    0 iterations.
  Work space size for distributed Hartree potential not set.
  Defaulting to   0.200000E+03 MB.
  Mixing parameter for spin density mixing has not been set.
  Using charge_mix_param as default:     0.5000.
  Algorithm-dependent basis array size parameters:
  | n_max_pulay                         :       10
  Presetting      1001 iterations before the initial mixing cycle
  is restarted anyway using the sc_init_iter criterion / keyword.
  Presetting a factor      1.000 between actual scf density residual
  and density convergence criterion sc_accuracy_rho below which sc_init_iter
  takes no effect.
  Calculation of forces was not defined in control.in. No forces will be calculated.
  Geometry relaxation not requested: no relaxation will be performed.
  No accuracy limit for integral partition fn. given. Defaulting to  0.1000E-14.
  No threshold value for u(r) in integrations given. Defaulting to  0.1000E-05.
  No accuracy for occupation numbers given. Defaulting to  0.1000E-12.
  No threshold value for occupation numbers given. Defaulting to  0.0000E+00.
  No accuracy for fermi level given. Defaulting to  0.1000E-19.
  Maximum # of iterations to find E_F not set. Defaulting to  200.
  Preferred method for the eigenvalue solver ('KS_method') not specified in 'control.in'.
  Calling BLACS routine to test compilation state
  Since ScaLAPACK support is enabled, defaulting to ELPA (via ELSI).
  Will not use alltoall communication since running on < 1024 CPUs.
  Threshold for basis singularities not set.
  Default threshold for basis singularities:  0.1000E-04
  partition_type (choice of integration weights) for integrals was not specified.
  | Using a version of the partition function of Stratmann and coworkers ('stratmann_sparse').
  | At each grid point, the set of atoms used to build the partition table is smoothly restricted to
  | only those atoms whose free-atom density would be non-zero at that grid point.
  Partitioning for Hartree potential was not defined. Using partition_type for integrals.
  | Adjusted default value of keyword multip_moments_threshold to:       0.10000000E-11
  | This value may affect high angular momentum components of the Hartree potential in periodic systems.
  No q(lm)/r^(l+1) cutoff set for long-range Hartree potential.
  | Using default value of  0.100000E-09 .
  | Verify using the multipole_threshold keyword.
  Defaulting to new monopole extrapolation.
  Density update method: automatic selection selected.
  Charge integration errors on the 3D integration grid will be compensated
  by explicit normalization and distribution of residual charges.
  Use the "compensate_multipole_errors" flag to change this behaviour.
  Number of empty states calculated from fragments:  222
  Set 'collect_eigenvectors' to be '.true.' for use_density_matrix .false.
  Set 'collect_eigenvectors' to be '.true.' for fo_dft.
 
  Consistency checks for the contents of geometry.in are next.
 
 * Warning: Initial charge and total charge of the system are inconsistent.
 * Selected charge in control.in:     1.0000* Sum of initial charges in geometry.in:     0.0000
  Structure-dependent array size parameters: 
  | Number of distinct atom types in initial rho :        2
  | Maximum number of distinct radial functions  :        9
  | Maximum number of basis functions            :      964
  | Number of Kohn-Sham states (occupied + empty):      408
------------------------------------------------------------

------------------------------------------------------------
          Preparing all fixed parts of the calculation.
------------------------------------------------------------
  Determining machine precision:
    2.225073858507201E-308
  Setting up grids for atomic and cluster calculations.

  Creating wave function, potential, and density for free atoms.
  Runtime choices for atomic solver:
  | atomic solver xc        : BLYP
  | compute density gradient: 1
  | compute kinetic density : F

  Species: H

  List of occupied orbitals and eigenvalues:
    n    l              occ      energy [Ha]    energy [eV]
    1    0           1.0000        -0.238990        -6.5032


  Species: C

  List of occupied orbitals and eigenvalues:
    n    l              occ      energy [Ha]    energy [eV]
    1    0           2.0000       -10.067089      -273.9394
    2    0           2.0000        -0.497842       -13.5470
    2    1           2.0000        -0.189944        -5.1687

  Spin-polarized or charged system:
  Charge density initialized according to selected moments and charges.

  Creating spin-polarized density from free atoms.

  Species: H
  Charge:   0.000000
  Moment:   1.000000

  List of occupied orbitals and eigenvalues:
    n    l      energy [Ha]    energy [eV]    occupation
  Spin-up
    1    0        -0.271622        -7.3912     1.00000000
  Spin-down
    1    0         0.010752         0.2926     0.00000000


  Species: C
  Charge:   0.000000
  Moment:   1.000000

  List of occupied orbitals and eigenvalues:
    n    l      energy [Ha]    energy [eV]    occupation
  Spin-up
    1    0       -10.052093      -273.5314     1.00000000
    2    0        -0.512942       -13.9579     1.00000000
    2    1        -0.202181        -5.5016     1.50000000
  Spin-down
    1    0       -10.033506      -273.0256     1.00000000
    2    0        -0.456462       -12.4210     1.00000000
    2    1        -0.151185        -4.1140     0.50000000


  Adding cutoff potential to free-atom effective potential.
  Creating fixed part of basis set: Ionic, confined, hydrogenic.
 
  H                    hydrogenic:
 
  List of hydrogenic basis orbitals: 
    n    l      effective z      eigenvalue [eV]  inner max. [A]     outer max. [A]     outer radius [A]   
    2    0         2.100000       -14.9728           0.193243           1.317208           4.583499
    2    1         3.500000       -41.6669           0.602369           0.602369           3.723403
 
 
  C                    hydrogenic:
 
  List of hydrogenic basis orbitals: 
    n    l      effective z      eigenvalue [eV]  inner max. [A]     outer max. [A]     outer radius [A]   
    2    1         1.700000        -9.7616           1.230570           1.230570           4.607917
    3    2         6.000000       -54.4224           0.792453           0.792453           3.883070
    2    0         4.900000       -81.6679           0.082559           0.562749           3.078220
 
  Creating atomic-like basis functions for current effective potential.

  Species H                   :

  List of atomic basis orbitals and eigenvalues:
    n    l      energy [Ha]    energy [eV]    outer radius [A]
    1    0        -0.238990        -6.5032       4.527807


  Species C                   :

  List of atomic basis orbitals and eigenvalues:
    n    l      energy [Ha]    energy [eV]    outer radius [A]
    1    0       -10.067089      -273.9394       1.934409
    2    0        -0.497842       -13.5470       4.496620
    2    1        -0.189944        -5.1687       4.551928

  Assembling full basis from fixed parts.
  | Species H :   atomic orbital   1 s accepted.
  | Species H :    hydro orbital   2 s accepted.
  | Species H :    hydro orbital   2 p accepted.
  | Species C :   atomic orbital   1 s accepted.
  | Species C :    hydro orbital   2 s accepted.
  | Species C :   atomic orbital   2 s accepted.
  | Species C :   atomic orbital   2 p accepted.
  | Species C :    hydro orbital   2 p accepted.
  | Species C :    hydro orbital   3 d accepted.
 
  Basis size parameters after reduction:
  | Total number of radial functions:        9
  | Total number of basis functions :      964
 
  Per-task memory consumption for arrays in subroutine allocate_ext:
  |           2.230576MB.
  Testing on-site integration grid accuracy.
  |  Species  Function  <phi|h_atom|phi> (log., in eV)  <phi|h_atom|phi> (rad., in eV)
           1        1                 -6.5044527913                 -6.5032312304
           1        2                 13.5128264660                 13.5186953162
           1        3                 25.3317713414                 25.3319138181
           2        4               -273.9394205892               -273.9393868748
           2        5                -10.6145279052                -10.6144887969
           2        6                 17.1727568254                 17.1688026287
           2        7                 -5.1704957803                 -5.1720974370
           2        8                  8.7521213222                  8.7293892811
           2        9                 27.7044268360                 27.7044408576

  Preparing densities etc. for the partition functions (integrals / Hartree potential).

  Preparations completed.
  max(cpu_time)          :      0.179 s.
  Wall clock time (cpu1) :      0.336 s.
------------------------------------------------------------

  Initializing index lists of integration centers etc. from given atomic structure:
  | Number of centers in hartree potential         :        92
  | Number of centers in hartree multipole         :        92
  | Number of centers in electron density summation:        92
  | Number of centers in basis integrals           :        92
  | Number of centers in integrals                 :        92
  | Number of centers in hamiltonian               :        92

------------------------------------------------------------
          Begin self-consistency loop: Initialization.

          Date     :  20241106, Time     :  121545.584
------------------------------------------------------------
  * Using 56 tasks for Scalapack Eigenvalue solver.
  Detailed listing of tasks and assigned k-points:
  (for non-periodic systems, the "k-point" denotes an internal label only)
   Task     0 k-point     1 on f001
   Task     1 k-point     1 on f001
   Task     2 k-point     1 on f001
   Task     3 k-point     1 on f001
   Task     4 k-point     1 on f001
   Task     5 k-point     1 on f001
   Task     6 k-point     1 on f001
   Task     7 k-point     1 on f001
   Task     8 k-point     1 on f001
   Task     9 k-point     1 on f001
   Task    10 k-point     1 on f001
   Task    11 k-point     1 on f001
   Task    12 k-point     1 on f001
   Task    13 k-point     1 on f001
   Task    14 k-point     1 on f001
   Task    15 k-point     1 on f001
   Task    16 k-point     1 on f001
   Task    17 k-point     1 on f001
   Task    18 k-point     1 on f001
   Task    19 k-point     1 on f001
   Task    20 k-point     1 on f001
   Task    21 k-point     1 on f001
   Task    22 k-point     1 on f001
   Task    23 k-point     1 on f001
   Task    24 k-point     1 on f001
   Task    25 k-point     1 on f001
   Task    26 k-point     1 on f001
   Task    27 k-point     1 on f001
   Task    28 k-point     1 on f001
   Task    29 k-point     1 on f001
   Task    30 k-point     1 on f001
   Task    31 k-point     1 on f001
   Task    32 k-point     1 on f001
   Task    33 k-point     1 on f001
   Task    34 k-point     1 on f001
   Task    35 k-point     1 on f001
   Task    36 k-point     1 on f001
   Task    37 k-point     1 on f001
   Task    38 k-point     1 on f001
   Task    39 k-point     1 on f001
   Task    40 k-point     1 on f001
   Task    41 k-point     1 on f001
   Task    42 k-point     1 on f001
   Task    43 k-point     1 on f001
   Task    44 k-point     1 on f001
   Task    45 k-point     1 on f001
   Task    46 k-point     1 on f001
   Task    47 k-point     1 on f001
   Task    48 k-point     1 on f001
   Task    49 k-point     1 on f001
   Task    50 k-point     1 on f001
   Task    51 k-point     1 on f001
   Task    52 k-point     1 on f001
   Task    53 k-point     1 on f001
   Task    54 k-point     1 on f001
   Task    55 k-point     1 on f001
  Tasks:    56 split into      8 X      7 BLACS grid
  Calculating block size based on n_basis =          964  max_nprow =            8  max_npcol =            7
  ScaLAPACK block size set to:           16
  Allocating        0.141 MB for ovlp
  Allocating        0.281 MB for ham
  Allocating        0.281 MB for eigenvec
  Required Scalapack workspace - INTEGER:            1  REAL:             1
  Partitioning the integration grid into batches with parallel hashing+maxmin method.
  | Number of batches:     4721
  | Maximal batch size:     197
  | Minimal batch size:      21
  | Average batch size:     104.422
  | Standard deviation of batch sizes:      30.990

  Integration load balanced across    56 MPI tasks.
  Work distribution over tasks is as follows:
  Task     0 has       8779 integration points.
  Task     1 has       8835 integration points.
  Task     2 has       8777 integration points.
  Task     3 has       8850 integration points.
  Task     4 has       8861 integration points.
  Task     5 has       8780 integration points.
  Task     6 has       8775 integration points.
  Task     7 has       8859 integration points.
  Task     8 has       8788 integration points.
  Task     9 has       8774 integration points.
  Task    10 has       8782 integration points.
  Task    11 has       8784 integration points.
  Task    12 has       8773 integration points.
  Task    13 has       8836 integration points.
  Task    14 has       8854 integration points.
  Task    15 has       8835 integration points.
  Task    16 has       8850 integration points.
  Task    17 has       8799 integration points.
  Task    18 has       8865 integration points.
  Task    19 has       8703 integration points.
  Task    20 has       8703 integration points.
  Task    21 has       8783 integration points.
  Task    22 has       8839 integration points.
  Task    23 has       8780 integration points.
  Task    24 has       8864 integration points.
  Task    25 has       8842 integration points.
  Task    26 has       8790 integration points.
  Task    27 has       8856 integration points.
  Task    28 has       8861 integration points.
  Task    29 has       8706 integration points.
  Task    30 has       8864 integration points.
  Task    31 has       8801 integration points.
  Task    32 has       8702 integration points.
  Task    33 has       8698 integration points.
  Task    34 has       8776 integration points.
  Task    35 has       8775 integration points.
  Task    36 has       8796 integration points.
  Task    37 has       8778 integration points.
  Task    38 has       8798 integration points.
  Task    39 has       8770 integration points.
  Task    40 has       8861 integration points.
  Task    41 has       8866 integration points.
  Task    42 has       8786 integration points.
  Task    43 has       8845 integration points.
  Task    44 has       8797 integration points.
  Task    45 has       8786 integration points.
  Task    46 has       8785 integration points.
  Task    47 has       8861 integration points.
  Task    48 has       8787 integration points.
  Task    49 has       8858 integration points.
  Task    50 has       8699 integration points.
  Task    51 has       8858 integration points.
  Task    52 has       8838 integration points.
  Task    53 has       8846 integration points.
  Task    54 has       8783 integration points.
  Task    55 has       8779 integration points.
  Initializing partition tables, free-atom densities, potentials, etc. across the integration grid (initialize_grid_storage).
  | initialize_grid_storage: Actual outermost partition radius vs. multipole_radius_free
  | (-- VB: in principle, multipole_radius_free should be larger, hence this output)
  | Species        1: Confinement radius =              4.999999999999999 AA, multipole_radius_free =              5.054417573612229 AA.
  | Species        1: outer_partition_radius set to              5.054417573612229 AA .
  | Species        2: Confinement radius =              4.999999999999999 AA, multipole_radius_free =              5.019602836301480 AA.
  | Species        2: outer_partition_radius set to              5.019602836301480 AA .
  | The sparse table of interatomic distances needs         44.53 kbyte instead of        67.71 kbyte of memory.
  | Net number of integration points:   492976
  | of which are non-zero points    :   421305
  Renormalizing the initial density to the exact electron count on the 3D integration grid.
  | Initial density: Formal number of electrons (from input files) :     372.0000000000
  | Integrated number of electrons on 3D grid     :     371.9997965320
  | Charge integration error                      :      -0.0002034680
  | Normalization factor for density and gradient :       1.0000005470
  Renormalizing the free-atom superposition density to the exact electron count on the 3D integration grid.
  | Formal number of electrons (from input files) :     371.0000000000
  | Integrated number of electrons on 3D grid     :     371.9997179326
  | Charge integration error                      :      -0.0002820674
  | Normalization factor for density and gradient :       1.0000007582
  Obtaining max. number of non-zero basis functions in each batch (get_n_compute_maxes).
  | Maximal number of non-zero basis functions:      250 in task     0
  | Maximal number of non-zero basis functions:      254 in task     1
  | Maximal number of non-zero basis functions:      254 in task     2
  | Maximal number of non-zero basis functions:      254 in task     3
  | Maximal number of non-zero basis functions:      253 in task     4
  | Maximal number of non-zero basis functions:      249 in task     5
  | Maximal number of non-zero basis functions:      251 in task     6
  | Maximal number of non-zero basis functions:      257 in task     7
  | Maximal number of non-zero basis functions:      253 in task     8
  | Maximal number of non-zero basis functions:      248 in task     9
  | Maximal number of non-zero basis functions:      246 in task    10
  | Maximal number of non-zero basis functions:      253 in task    11
  | Maximal number of non-zero basis functions:      250 in task    12
  | Maximal number of non-zero basis functions:      246 in task    13
  | Maximal number of non-zero basis functions:      248 in task    14
  | Maximal number of non-zero basis functions:      250 in task    15
  | Maximal number of non-zero basis functions:      253 in task    16
  | Maximal number of non-zero basis functions:      253 in task    17
  | Maximal number of non-zero basis functions:      254 in task    18
  | Maximal number of non-zero basis functions:      251 in task    19
  | Maximal number of non-zero basis functions:      251 in task    20
  | Maximal number of non-zero basis functions:      250 in task    21
  | Maximal number of non-zero basis functions:      245 in task    22
  | Maximal number of non-zero basis functions:      253 in task    23
  | Maximal number of non-zero basis functions:      254 in task    24
  | Maximal number of non-zero basis functions:      247 in task    25
  | Maximal number of non-zero basis functions:      249 in task    26
  | Maximal number of non-zero basis functions:      249 in task    27
  | Maximal number of non-zero basis functions:      248 in task    28
  | Maximal number of non-zero basis functions:      250 in task    29
  | Maximal number of non-zero basis functions:      250 in task    30
  | Maximal number of non-zero basis functions:      250 in task    31
  | Maximal number of non-zero basis functions:      243 in task    32
  | Maximal number of non-zero basis functions:      250 in task    33
  | Maximal number of non-zero basis functions:      244 in task    34
  | Maximal number of non-zero basis functions:      249 in task    35
  | Maximal number of non-zero basis functions:      247 in task    36
  | Maximal number of non-zero basis functions:      249 in task    37
  | Maximal number of non-zero basis functions:      245 in task    38
  | Maximal number of non-zero basis functions:      248 in task    39
  | Maximal number of non-zero basis functions:      249 in task    40
  | Maximal number of non-zero basis functions:      253 in task    41
  | Maximal number of non-zero basis functions:      253 in task    42
  | Maximal number of non-zero basis functions:      253 in task    43
  | Maximal number of non-zero basis functions:      254 in task    44
  | Maximal number of non-zero basis functions:      245 in task    45
  | Maximal number of non-zero basis functions:      256 in task    46
  | Maximal number of non-zero basis functions:      249 in task    47
  | Maximal number of non-zero basis functions:      254 in task    48
  | Maximal number of non-zero basis functions:      254 in task    49
  | Maximal number of non-zero basis functions:      250 in task    50
  | Maximal number of non-zero basis functions:      253 in task    51
  | Maximal number of non-zero basis functions:      248 in task    52
  | Maximal number of non-zero basis functions:      246 in task    53
  | Maximal number of non-zero basis functions:      247 in task    54
  | Maximal number of non-zero basis functions:      254 in task    55
  Selecting the method for density update.
  split updates selected: force will be updated via density matrix and electron density via Kohn Sham orbitals.
  Scalapack and split updates requested:
  Switching to packed matrix format "index" by default.
  Hamiltonian matrix size:
  | Size of matrix non-packed:                465130
  | Size of matrix packed:          177852
  Allocating        6.001 MB for KS_eigenvector
  Integrating Hamiltonian matrix: batch-based integration.
  Time summed over all CPUs for integration: real work       37.498 s, elapsed       66.232 s => Consider using load balancing!
  Integrating overlap matrix.
  Time summed over all CPUs for integration: real work        4.786 s, elapsed        9.574 s
  Decreasing sparse matrix size:
  | Tolerance:  0.1000E-12
  Hamiltonian matrix
  | Array has   171041 nonzero elements out of   177852 elements
  | Sparsity factor is 0.038
  Overlap matrix
  | Array has   167242 nonzero elements out of   177852 elements
  | Sparsity factor is 0.060
  New size of hamiltonian matrix:      171042
  Not deallocating overlap matrix.

  Reading cluster restart information from file restart.combined
  Writing Kohn-Sham eigenvalues.

  Spin-up eigenvalues:

  State    Occupation    Eigenvalue [Ha]    Eigenvalue [eV]
      1       1.00000         -10.059044         -273.72052
      2       1.00000         -10.058268         -273.69941
      3       1.00000         -10.057763         -273.68566
      4       1.00000         -10.052482         -273.54194
      5       1.00000         -10.050732         -273.49434
      6       1.00000         -10.050639         -273.49182
      7       1.00000         -10.050055         -273.47592
      8       1.00000         -10.045981         -273.36504
      9       1.00000         -10.045565         -273.35373
     10       1.00000         -10.044595         -273.32734
     11       1.00000         -10.043478         -273.29693
     12       1.00000         -10.043308         -273.29232
     13       1.00000         -10.042305         -273.26502
     14       1.00000         -10.041473         -273.24239
     15       1.00000         -10.040272         -273.20970
     16       1.00000         -10.040071         -273.20424
     17       1.00000         -10.037168         -273.12523
     18       1.00000         -10.036488         -273.10673
     19       1.00000         -10.036401         -273.10438
     20       1.00000         -10.033872         -273.03554
     21       1.00000         -10.033822         -273.03420
     22       1.00000         -10.031855         -272.98067
     23       1.00000         -10.031706         -272.97660
     24       1.00000         -10.020919         -272.68309
     25       1.00000         -10.020155         -272.66229
     26       1.00000         -10.019260         -272.63792
     27       1.00000         -10.014991         -272.52177
     28       1.00000         -10.014688         -272.51352
     29       1.00000          -9.931792         -270.25781
     30       1.00000          -9.931407         -270.24733
     31       1.00000          -9.931092         -270.23877
     32       1.00000          -9.931077         -270.23834
     33       1.00000          -9.930927         -270.23427
     34       1.00000          -9.928584         -270.17052
     35       1.00000          -9.927396         -270.13819
     36       1.00000          -9.925764         -270.09378
     37       1.00000          -9.924953         -270.07171
     38       1.00000          -9.924340         -270.05502
     39       1.00000          -9.924210         -270.05148
     40       1.00000          -9.923946         -270.04431
     41       1.00000          -9.923517         -270.03264
     42       1.00000          -9.921195         -269.96944
     43       1.00000          -9.917913         -269.88014
     44       1.00000          -9.917153         -269.85946
     45       1.00000          -9.916066         -269.82989
     46       1.00000          -9.915696         -269.81981
     47       1.00000          -9.914769         -269.79460
     48       1.00000          -9.914650         -269.79135
     49       1.00000          -9.914213         -269.77946
     50       1.00000          -9.914180         -269.77857
     51       1.00000          -9.914101         -269.77641
     52       1.00000          -9.913671         -269.76472
     53       1.00000          -9.913451         -269.75873
     54       1.00000          -9.910927         -269.69005
     55       1.00000          -9.909755         -269.65816
     56       1.00000          -9.900838         -269.41552
     57       1.00000          -0.941995          -25.63300
     58       1.00000          -0.917925          -24.97800
     59       1.00000          -0.903959          -24.59796
     60       1.00000          -0.879868          -23.94242
     61       1.00000          -0.874441          -23.79476
     62       1.00000          -0.854010          -23.23880
     63       1.00000          -0.823745          -22.41524
     64       1.00000          -0.815242          -22.18387
     65       1.00000          -0.813717          -22.14238
     66       1.00000          -0.795435          -21.64488
     67       1.00000          -0.794309          -21.61426
     68       1.00000          -0.792210          -21.55714
     69       1.00000          -0.783860          -21.32992
     70       1.00000          -0.783014          -21.30689
     71       1.00000          -0.774552          -21.07664
     72       1.00000          -0.767344          -20.88049
     73       1.00000          -0.760736          -20.70068
     74       1.00000          -0.759353          -20.66306
     75       1.00000          -0.757092          -20.60153
     76       1.00000          -0.732551          -19.93373
     77       1.00000          -0.713410          -19.41289
     78       1.00000          -0.705289          -19.19189
     79       1.00000          -0.691370          -18.81313
     80       1.00000          -0.690671          -18.79411
     81       1.00000          -0.681259          -18.53800
     82       1.00000          -0.680659          -18.52168
     83       1.00000          -0.678369          -18.45935
     84       1.00000          -0.675045          -18.36891
     85       1.00000          -0.669181          -18.20933
     86       1.00000          -0.666124          -18.12617
     87       1.00000          -0.658781          -17.92634
     88       1.00000          -0.656988          -17.87755
     89       1.00000          -0.642298          -17.47782
     90       1.00000          -0.633626          -17.24184
     91       1.00000          -0.632624          -17.21458
     92       1.00000          -0.624656          -16.99774
     93       1.00000          -0.613652          -16.69833
     94       1.00000          -0.604217          -16.44159
     95       1.00000          -0.594167          -16.16811
     96       1.00000          -0.583522          -15.87845
     97       1.00000          -0.578623          -15.74514
     98       1.00000          -0.574130          -15.62287
     99       1.00000          -0.573001          -15.59215
    100       1.00000          -0.566741          -15.42182
    101       1.00000          -0.565558          -15.38961
    102       1.00000          -0.559723          -15.23085
    103       1.00000          -0.550347          -14.97571
    104       1.00000          -0.542463          -14.76117
    105       1.00000          -0.540585          -14.71005
    106       1.00000          -0.534685          -14.54952
    107       1.00000          -0.533424          -14.51522
    108       1.00000          -0.529123          -14.39818
    109       1.00000          -0.522323          -14.21314
    110       1.00000          -0.519866          -14.14628
    111       1.00000          -0.508122          -13.82670
    112       1.00000          -0.504923          -13.73966
    113       1.00000          -0.499015          -13.57890
    114       1.00000          -0.497776          -13.54518
    115       1.00000          -0.495294          -13.47763
    116       1.00000          -0.495056          -13.47116
    117       1.00000          -0.490966          -13.35986
    118       1.00000          -0.487556          -13.26708
    119       1.00000          -0.487123          -13.25530
    120       1.00000          -0.482984          -13.14268
    121       1.00000          -0.478557          -13.02221
    122       1.00000          -0.470928          -12.81461
    123       1.00000          -0.470691          -12.80817
    124       1.00000          -0.469738          -12.78223
    125       1.00000          -0.467837          -12.73050
    126       1.00000          -0.467672          -12.72600
    127       1.00000          -0.466567          -12.69594
    128       1.00000          -0.454413          -12.36521
    129       1.00000          -0.454009          -12.35423
    130       1.00000          -0.453408          -12.33785
    131       1.00000          -0.451754          -12.29285
    132       1.00000          -0.444079          -12.08400
    133       1.00000          -0.435558          -11.85214
    134       1.00000          -0.434804          -11.83161
    135       1.00000          -0.430184          -11.70591
    136       1.00000          -0.424607          -11.55415
    137       1.00000          -0.423524          -11.52468
    138       1.00000          -0.422171          -11.48785
    139       1.00000          -0.417140          -11.35095
    140       1.00000          -0.414205          -11.27109
    141       1.00000          -0.413867          -11.26189
    142       1.00000          -0.409005          -11.12960
    143       1.00000          -0.407513          -11.08898
    144       1.00000          -0.400524          -10.89880
    145       1.00000          -0.394218          -10.72721
    146       1.00000          -0.394010          -10.72157
    147       1.00000          -0.389177          -10.59003
    148       1.00000          -0.388280          -10.56563
    149       1.00000          -0.384367          -10.45915
    150       1.00000          -0.381996          -10.39463
    151       1.00000          -0.379057          -10.31466
    152       1.00000          -0.371493          -10.10885
    153       1.00000          -0.371238          -10.10190
    154       1.00000          -0.369439          -10.05294
    155       1.00000          -0.366825           -9.98181
    156       1.00000          -0.363425           -9.88929
    157       1.00000          -0.361633           -9.84055
    158       1.00000          -0.352023           -9.57903
    159       1.00000          -0.347297           -9.45043
    160       1.00000          -0.346450           -9.42737
    161       1.00000          -0.344399           -9.37157
    162       1.00000          -0.343140           -9.33731
    163       1.00000          -0.337304           -9.17852
    164       1.00000          -0.334218           -9.09453
    165       1.00000          -0.331035           -9.00792
    166       1.00000          -0.327520           -8.91226
    167       1.00000          -0.325148           -8.84772
    168       1.00000          -0.316392           -8.60946
    169       1.00000          -0.315179           -8.57645
    170       1.00000          -0.310318           -8.44420
    171       1.00000          -0.309305           -8.41662
    172       1.00000          -0.307070           -8.35579
    173       1.00000          -0.301481           -8.20372
    174       1.00000          -0.301355           -8.20029
    175       1.00000          -0.298924           -8.13414
    176       1.00000          -0.289291           -7.87200
    177       1.00000          -0.283849           -7.72393
    178       1.00000          -0.280442           -7.63123
    179       1.00000          -0.253505           -6.89821
    180       1.00000          -0.244446           -6.65172
    181       0.00000          -0.243364           -6.62227
    182       1.00000          -0.232507           -6.32683
    183       1.00000          -0.229504           -6.24512
    184       1.00000          -0.223680           -6.08665
    185       1.00000          -0.214259           -5.83027
    186       0.00000          -0.192302           -5.23281
    187       1.00000          -0.183337           -4.98885
    188       1.00000          -0.168524           -4.58578
    189       0.00000          -0.162643           -4.42574
    190       0.00000          -0.159468           -4.33935
    191       0.00000          -0.156440           -4.25696
    192       0.00000          -0.139868           -3.80601
    193       0.00000          -0.132635           -3.60917
    194       0.00000          -0.123362           -3.35685
    195       0.00000          -0.120955           -3.29134
    196       0.00000          -0.074302           -2.02186
    197       0.00000          -0.073192           -1.99166
    198       0.00000          -0.061729           -1.67973
    199       0.00000          -0.056484           -1.53701
    200       0.00000          -0.052095           -1.41758
    201       0.00000          -0.050136           -1.36426
    202       0.00000          -0.047764           -1.29974
    203       0.00000          -0.045821           -1.24684
    204       0.00000          -0.041962           -1.14185
    205       0.00000          -0.041636           -1.13298
    206       0.00000          -0.040145           -1.09240
    207       0.00000          -0.030839           -0.83918
    208       0.00000          -0.027319           -0.74337
    209       0.00000          -0.022287           -0.60647
    210       0.00000          -0.019747           -0.53734
    211       0.00000          -0.016142           -0.43925
    212       0.00000          -0.009405           -0.25593
    213       0.00000          -0.005855           -0.15932
    214       0.00000          -0.004997           -0.13598
    215       0.00000           0.002773            0.07547
    216       0.00000           0.016982            0.46209
    217       0.00000           0.026798            0.72920
    218       0.00000           0.032247            0.87748
    219       0.00000           0.037905            1.03144
    220       0.00000           0.039032            1.06210
    221       0.00000           0.044127            1.20076
    222       0.00000           0.045842            1.24742
    223       0.00000           0.045879            1.24844
    224       0.00000           0.047010            1.27920
    225       0.00000           0.052210            1.42071
    226       0.00000           0.054888            1.49359
    227       0.00000           0.055846            1.51964
    228       0.00000           0.062491            1.70048
    229       0.00000           0.063448            1.72651
    230       0.00000           0.063616            1.73109
    231       0.00000           0.067381            1.83353
    232       0.00000           0.068436            1.86225
    233       0.00000           0.079166            2.15423
    234       0.00000           0.081087            2.20648
    235       0.00000           0.081592            2.22023
    236       0.00000           0.085208            2.31862
    237       0.00000           0.087023            2.36801
    238       0.00000           0.091619            2.49308
    239       0.00000           0.094236            2.56428
    240       0.00000           0.099725            2.71365
    241       0.00000           0.104200            2.83541
    242       0.00000           0.108265            2.94605
[...]
    247       0.00000           0.126048            3.42994
    248       0.00000           0.128066            3.48485
    249       0.00000           0.130420            3.54890
    250       0.00000           0.133506            3.63288
    251       0.00000           0.136298            3.70885
    252       0.00000           0.140360            3.81940
    253       0.00000           0.144997            3.94556
    254       0.00000           0.148599            4.04359
    255       0.00000           0.149955            4.08047
    256       0.00000           0.152156            4.14039
    257       0.00000           0.154981            4.21724
    258       0.00000           0.157974            4.29869
    259       0.00000           0.160896            4.37821
    260       0.00000           0.165495            4.50335
    261       0.00000           0.167625            4.56130
    262       0.00000           0.168383            4.58194
    263       0.00000           0.169213            4.60451
    264       0.00000           0.171019            4.65366
    265       0.00000           0.174298            4.74290
    266       0.00000           0.179012            4.87115
    267       0.00000           0.181354            4.93488
    268       0.00000           0.186877            5.08518
    269       0.00000           0.187111            5.09155
    270       0.00000           0.193266            5.25904
    271       0.00000           0.194368            5.28903
    272       0.00000           0.199097            5.41769
    273       0.00000           0.200821            5.46462
    274       0.00000           0.201307            5.47784
    275       0.00000           0.206085            5.60785
    276       0.00000           0.206557            5.62071
    277       0.00000           0.211203            5.74713
    278       0.00000           0.213071            5.79795
    279       0.00000           0.214919            5.84824
    280       0.00000           0.217509            5.91871
    281       0.00000           0.219676            5.97770
    282       0.00000           0.222946            6.06667
    283       0.00000           0.223271            6.07552
    284       0.00000           0.228782            6.22548
    285       0.00000           0.233096            6.34288
    286       0.00000           0.233408            6.35135
    287       0.00000           0.236092            6.42439
    288       0.00000           0.236569            6.43738
    289       0.00000           0.239530            6.51793
    290       0.00000           0.243702            6.63146
    291       0.00000           0.248432            6.76018
    292       0.00000           0.253754            6.90500
    293       0.00000           0.255249            6.94568
    294       0.00000           0.256701            6.98520
    295       0.00000           0.257677            7.01174
    296       0.00000           0.260129            7.07847
    297       0.00000           0.261961            7.12831
    298       0.00000           0.262726            7.14913
    299       0.00000           0.264285            7.19156
    300       0.00000           0.268531            7.30711
    301       0.00000           0.269059            7.32146
    302       0.00000           0.274067            7.45774
    303       0.00000           0.277805            7.55947
    304       0.00000           0.278646            7.58233
    305       0.00000           0.279970            7.61838
    306       0.00000           0.282101            7.67635
    307       0.00000           0.283910            7.72560
    308       0.00000           0.284617            7.74482
    309       0.00000           0.286953            7.80840
    310       0.00000           0.288923            7.86200
    311       0.00000           0.289060            7.86572
    312       0.00000           0.292361            7.95556
    313       0.00000           0.293923            7.99806
    314       0.00000           0.294179            8.00503
    315       0.00000           0.299095            8.13880
    316       0.00000           0.301163            8.19506
    317       0.00000           0.304065            8.27403
    318       0.00000           0.306677            8.34511
    319       0.00000           0.306877            8.35055
    320       0.00000           0.311821            8.48509
    321       0.00000           0.315394            8.58230
    322       0.00000           0.318756            8.67379
    323       0.00000           0.321164            8.73931
    324       0.00000           0.324855            8.83974
    325       0.00000           0.325954            8.86965
    326       0.00000           0.330382            8.99014
    327       0.00000           0.332514            9.04815
    328       0.00000           0.334848            9.11168
    329       0.00000           0.335156            9.12005
    330       0.00000           0.335865            9.13935
    331       0.00000           0.337391            9.18088
    332       0.00000           0.340196            9.25720
    333       0.00000           0.340720            9.27146
    334       0.00000           0.343492            9.34691
    335       0.00000           0.343567            9.34892
    336       0.00000           0.347797            9.46404
    337       0.00000           0.349103            9.49958
    338       0.00000           0.349771            9.51775
    339       0.00000           0.352840            9.60126
    340       0.00000           0.355923            9.68516
    341       0.00000           0.360858            9.81945
    342       0.00000           0.362563            9.86585
    343       0.00000           0.365254            9.93906
    344       0.00000           0.365567            9.94759
    345       0.00000           0.369132           10.04458
    346       0.00000           0.370975           10.09473
    347       0.00000           0.377674           10.27704
    348       0.00000           0.380844           10.36329
    349       0.00000           0.386968           10.52995
    350       0.00000           0.390070           10.61434
    351       0.00000           0.392130           10.67040
    352       0.00000           0.393534           10.70861
    353       0.00000           0.394111           10.72432
    354       0.00000           0.395616           10.76526
    355       0.00000           0.397441           10.81492
    356       0.00000           0.397949           10.82875
    357       0.00000           0.405350           11.03014
    358       0.00000           0.405377           11.03086
    359       0.00000           0.407166           11.07954
    360       0.00000           0.410883           11.18070
    361       0.00000           0.415111           11.29574
    362       0.00000           0.418941           11.39995
    363       0.00000           0.430694           11.71979
    364       0.00000           0.430986           11.72772
    365       0.00000           0.431003           11.72820
    366       0.00000           0.432592           11.77143
    367       0.00000           0.435263           11.84412
    368       0.00000           0.436722           11.88380
    369       0.00000           0.436791           11.88569
    370       0.00000           0.445543           12.12383
    371       0.00000           0.448968           12.21705
    372       0.00000           0.452766           12.32038
    373       0.00000           0.455084           12.38346
    374       0.00000           0.455965           12.40743
    375       0.00000           0.456734           12.42837
    376       0.00000           0.458620           12.47969
    377       0.00000           0.462719           12.59121
    378       0.00000           0.465064           12.65503
    379       0.00000           0.466199           12.68591
    380       0.00000           0.469486           12.77535
    381       0.00000           0.477319           12.98851
    382       0.00000           0.479137           13.03798
    383       0.00000           0.480389           13.07206
    384       0.00000           0.481465           13.10132
    385       0.00000           0.486242           13.23133
    386       0.00000           0.492535           13.40256
    387       0.00000           0.496942           13.52249
    388       0.00000           0.503304           13.69561
    389       0.00000           0.506350           13.77849
    390       0.00000           0.513098           13.96211
    391       0.00000           0.515784           14.03521
    392       0.00000           0.516680           14.05958
    393       0.00000           0.527994           14.36745
    394       0.00000           0.536233           14.59163
    395       0.00000           0.537153           14.61668
    396       0.00000           0.542689           14.76731
    397       0.00000           0.545541           14.84492
    398       0.00000           0.547132           14.88822
    399       0.00000           0.565537           15.38903
    400       0.00000           0.574883           15.64337
    401       0.00000           0.578163           15.73261
    402       0.00000           0.594279           16.17114
    403       0.00000           0.595044           16.19198
    404       0.00000           0.602398           16.39208
    405       0.00000           0.611419           16.63755
    406       0.00000           0.613737           16.70064
    407       0.00000           0.626181           17.03926
    408       0.00000           0.651344           17.72398

  Current spin moment of the entire structure :
  | N = N_up - N_down :    1.00
  | S                 :    0.50
  | J                 :    2.00

  Highest occupied state (VBM) at     -5.23280804 eV
  | Occupation number:      1.00000000
  | Spin channel:        1

  Lowest unoccupied state (CBM) at    -5.10311169 eV
  | Occupation number:      0.00000000
  | Spin channel:        2

  Overall HOMO-LUMO gap:      0.12969635 eV.

  Total energy components:
  | Sum of eigenvalues            :       -1249.59688485 Ha      -34003.26130360 eV
  | XC energy correction          :        -316.77844450 Ha       -8619.98005458 eV
  | XC potential correction       :         405.62766627 Ha       11037.69039063 eV
  | Free-atom electrostatic energy:        -942.12833819 Ha      -25636.61645883 eV
  | Hartree energy correction     :         -47.88242866 Ha       -1302.94717717 eV
  | Entropy correction            :          -0.00000000 Ha          -0.00000000 eV
  | ---------------------------
  | Total energy                  :       -2150.75842993 Ha      -58525.11460356 eV
  | Total energy, T -> 0          :       -2150.75842993 Ha      -58525.11460356 eV  <-- do not rely on this value for anything but (periodic) metals
  | Electronic free energy        :       -2150.75842993 Ha      -58525.11460356 eV

  Derived energy quantities:
  | Kinetic energy                :        2158.79492880 Ha       58743.79886421 eV
  | Electrostatic energy          :       -3992.77491423 Ha     -108648.93341318 eV
  | Energy correction for multipole
  | error in Hartree potential    :           0.75386619 Ha          20.51374269 eV
  | Sum of eigenvalues per atom                           :        -369.60066634 eV
  | Total energy (T->0) per atom                          :        -636.14255004 eV  <-- do not rely on this value for anything but (periodic) metals
  | Electronic free energy per atom                       :        -636.14255004 eV
  End evaluation of scaled ZORA corrections.
  | Time for scaled ZORA corrections            :        1.535 s           1.537 s
------------------------------------------------------------

  Energy and forces in a compact form:
  | Total energy uncorrected      :         -0.585251146035613E+05 eV
  | Total energy corrected        :         -0.585251146035613E+05 eV  <-- do not rely on this value for anything but (periodic) metals
  | Electronic free energy        :         -0.585251146035613E+05 eV

  ------------------------------------ 
  Start decomposition of the XC Energy 
  ------------------------------------ 
  X and C from original XC functional choice 
  Hartree-Fock Energy :          0.000000000 Ha              0.000000000 eV
  X Energy            :       -304.177859154 Ha          -8277.100681832 eV
  C Energy            :        -12.600585345 Ha           -342.879372752 eV
  XC Energy w/o HF    :       -316.778444499 Ha          -8619.980054583 eV
  Total XC Energy     :       -316.778444499 Ha          -8619.980054583 eV
  ------------------------------------ 
  LDA X and C from self-consistent density 
  X Energy LDA        :       -273.922728311 Ha          -7453.816683362 eV
  C Energy LDA        :        -23.919984472 Ha           -650.895894713 eV
  ------------------------------------ 
  End decomposition of the XC Energy 
  ------------------------------------ 

------------------------------------------------------------

  --------------------------------------------------------
  Calculation of electronic coupling values with FO-DFT
  --------------------------------------------------------
  Collecting information for output...
  H_ab for hole-transfer
  States evaluated for Fragment 1: 93  to   93
  States evaluated for Fragment 2: 93  to   93
  Please remember, these states are numbered according to the fragments,
  NOT the combined system!

  st1 -> st2:     h_ab
  -----------  ----------   ---
  093 -> 093:        0.91   meV
  .         :       0.033   mH

  | Total time to calculate H_ab                :       10.405 s          10.540 s
  -------------------------------------------------------------------------------
  | Time for Loewdin orthogonalisation          :        7.608 s           7.583 s
  | Time for H_ab submatrix evaluation          :        0.002 s           0.017 s
  -------------------------------------------------------------------------------
  Leaving FO-DFT routine.

------------------------------------------------------------------------------
  Final output of selected total energy values:

  The following output summarizes some interesting total energy values
  at the end of a run (AFTER all relaxation, molecular dynamics, etc.).

  | Total energy of the DFT / Hartree-Fock s.c.f. calculation      :         -58525.114603561 eV
  | Final zero-broadening corrected energy (caution - metals only) :         -58525.114603561 eV
  | For reference only, the value of 1 Hartree used in FHI-aims is :             27.211384500 eV

  Before relying on these values, please be sure to understand exactly which
  total energy value is referred to by a given number. Different objects may
  all carry the same name 'total energy'. Definitions:

  Total energy of the DFT / Hartree-Fock s.c.f. calculation:
  | Note that this energy does not include ANY quantities calculated after the
  | s.c.f. cycle, in particular not ANY RPA, MP2, etc. many-body perturbation terms.
  | Scalar relativistic effects have been included in the 'scaled ZORA' approximation.

  Final zero-broadening corrected energy:
  | For metallic systems only, a broadening of the occupation numbers at the Fermi
  | level can be extrapolated back to zero broadening by an electron-gas inspired
  | formula. For all systems that are not real metals, this value can be
  | meaningless and should be avoided.

------------------------------------------------------------------------------
  Methods described in the following list of references were used in this FHI-aims run.
  If you publish the results, please make sure to cite these reference if they apply.
  FHI-aims is an academic code, and for our developers (often, Ph.D. students
  and postdocs), scientific credit in the community is essential.
  Thank you for helping us!

  For any use of FHI-aims, please cite:

    Volker Blum, Ralf Gehrke, Felix Hanke, Paula Havu, Ville Havu,
    Xinguo Ren, Karsten Reuter, and Matthias Scheffler
    'Ab initio molecular simulations with numeric atom-centered orbitals'
    Computer Physics Communications 180, 2175-2196 (2009)
    http://doi.org/10.1016/j.cpc.2009.06.022


  For calculations of electronic coupling values using the
  Fragment molecular orbital scheme (FO-DFT), please cite:

    Christoph Schober, Karsten Reuter, Harald Oberhofer
    'Critical analysis of fragment-orbital DFT schemes
    for the calculation of electronic coupling values'
    Journal of Chemical Physics, 144, 054103 (2016).


  For the real-space grid partitioning and parallelization used in this calculation, please cite:

    Ville Havu, Volker Blum, Paula Havu, and Matthias Scheffler,
    'Efficient O(N) integration for all-electron electronic structure calculation'
    'using numerically tabulated basis functions'
    Journal of Computational Physics 228, 8367-8379 (2009).
    http://doi.org/10.1016/j.jcp.2009.08.008

  Of course, there are many other important community references, e.g., those cited in the
  above references. Our list is limited to references that describe implementations in the
  FHI-aims code. The reason is purely practical (length of this list) - please credit others as well.

------------------------------------------------------------
          Leaving FHI-aims.
          Date     :  20241106, Time     :  121612.884

          Computational steps:
          | Number of self-consistency cycles          :            0
          | Number of SCF (re)initializations          :            1

          Detailed time accounting                     :  max(cpu_time)    wall_clock(cpu1)
          | Total time                                  :       31.755 s          31.844 s
          | Preparation time                            :        0.179 s           0.336 s
          | Boundary condition initalization            :        0.000 s           0.025 s
          | Grid partitioning                           :        2.958 s           2.966 s
          | Preloading free-atom quantities on grid     :        0.539 s           0.592 s
          | Free-atom superposition energy              :        0.181 s           0.207 s
          | Total time for integrations                 :        3.990 s           4.016 s
          | Total time for solution of K.-S. equations  :        1.154 s           1.174 s
          | Total time for density update               :        1.013 s           1.026 s
          | Total time for mixing                       :        0.013 s           0.024 s
          | Total time for Hartree multipole update     :        2.731 s           2.758 s
          | Total time for Hartree multipole sum        :        0.806 s           0.832 s
          | Total time for total energy evaluation      :        0.000 s           0.052 s
          | Total time for scaled ZORA corrections      :        1.535 s           1.537 s
          | Total time for FO-DFT calculation           :       10.379 s          10.514 s

          Partial memory accounting:
          | Residual value for overall tracked memory usage across tasks:     0.000000 MB (should be 0.000000 MB)
          | Peak values for overall tracked memory usage:
          |   Minimum:       18.000 MB (on task 32 after allocating zora_vector2)
          |   Maximum:       18.531 MB (on task  7 after allocating zora_vector2)
          |   Average:       18.263 MB
          | Largest tracked array allocation:
          |   Minimum:        6.001 MB (KS_eigenvector on task  0)
          |   Maximum:        6.001 MB (KS_eigenvector on task  0)
          |   Average:        6.001 MB
          Note:  These values currently only include a subset of arrays which are explicitly tracked.
          The "true" memory usage will be greater.

          Have a nice day.
------------------------------------------------------------
