------------------------------------------------------------
          Invoking FHI-aims ...

          When using FHI-aims, please cite the following reference:

            Volker Blum, Ralf Gehrke, Felix Hanke, Paula Havu,
            Ville Havu, Xinguo Ren, Karsten Reuter, and Matthias Scheffler,
            'Ab Initio Molecular Simulations with Numeric Atom-Centered Orbitals',
            Computer Physics Communications 180, 2175-2196 (2009)

          In addition, many other developments in FHI-aims are likely important for
          your particular application. A partial list of references is given at the end of
          this file. Thank you for giving credit to the authors of these developments.

          For any questions about FHI-aims, please visit our slack channel at

            https://fhi-aims.slack.com

          and our main development and support site at

            https://aims-git.rz-berlin.mpg.de .

          The latter site, in particular, has a wiki to collect information, as well
          as an issue tracker to log discussions, suggest improvements, and report issues
          or bugs. https://aims-git.rz-berlin.mpg.de is also the main development site
          of the project and all new and updated code versions can be obtained there.
          Please send an email to aims-coordinators@fhi-berlin.mpg.de and we will add
          you to these sites. They are for you and everyone is welcome there.

------------------------------------------------------------



  Date     :  20241204, Time     :  142525.933
  Time zero on CPU 1             :   0.416636000000000E+00  s.
  Internal wall clock time zero  :           502554325.933  s.

  FHI-aims created a unique identifier for this run for later identification
  aims_uuid : 992FE034-8000-41C1-A718-9DF96D295120

  Build configuration of the current instance of FHI-aims
  -------------------------------------------------------
  FHI-aims version      : 221103
  Commit number         : GITDIR-NOTFOUND
  CMake host system     : Linux-3.10.0-1160.59.1.el7.x86_64
  CMake version         : 3.17.5
  Fortran compiler      : /home/spack/spack/opt/spack/linux-centos7-broadwell/gcc-8.2.0/intel-oneapi-mpi-2021.13.1-tc3o22m5brhwlepjze7ymovtbug6ollk/mpi/2021.13/bin/mpiifort (Intel) version 20.2.8.20221119
  Fortran compiler flags: -O3 -ip -fp-model precise
  C compiler            : /home/spack/spack/opt/spack/linux-centos7-broadwell/gcc-8.2.0/intel-oneapi-compilers-2023.0.0-qdtyksft5ugoazragh7yusjezd4gp7hm/compiler/2023.0.0/linux/bin/intel64/icc (Intel) version 20.2.8.20221119
  C compiler flags      : -O3 -ip -fp-model precise -std=gnu99
  HIP compiler          :
  HIP compiler flags    :
  HIP GPU arch          :
  Using MPI
  Using ScaLAPACK
  Using LibXC
  Using i-PI
  Using RLSY
  Linking against: /home/spack/spack/opt/spack/linux-centos7-broadwell/gcc-8.2.0/intel-oneapi-mkl-2024.2.1-2ept5lpbp5bastej6jsrfm45y5ab2lpn/mkl/latest/lib/intel64/libmkl_intel_lp64.so
                   /home/spack/spack/opt/spack/linux-centos7-broadwell/gcc-8.2.0/intel-oneapi-mkl-2024.2.1-2ept5lpbp5bastej6jsrfm45y5ab2lpn/mkl/latest/lib/intel64/libmkl_sequential.so
                   /home/spack/spack/opt/spack/linux-centos7-broadwell/gcc-8.2.0/intel-oneapi-mkl-2024.2.1-2ept5lpbp5bastej6jsrfm45y5ab2lpn/mkl/latest/lib/intel64/libmkl_core.so
                   /home/spack/spack/opt/spack/linux-centos7-broadwell/gcc-8.2.0/intel-oneapi-mkl-2024.2.1-2ept5lpbp5bastej6jsrfm45y5ab2lpn/mkl/latest/lib/intel64/libmkl_blacs_intelmpi_lp64.so
                   /home/spack/spack/opt/spack/linux-centos7-broadwell/gcc-8.2.0/intel-oneapi-mkl-2024.2.1-2ept5lpbp5bastej6jsrfm45y5ab2lpn/mkl/latest/lib/intel64/libmkl_scalapack_lp64.so

  Using       54 parallel tasks.
  Task        0 on host f020 reporting.
  Task        1 on host f020 reporting.
  Task        2 on host f020 reporting.
  Task        3 on host f020 reporting.
  Task        4 on host f020 reporting.
  Task        5 on host f020 reporting.
  Task        6 on host f020 reporting.
  Task        7 on host f020 reporting.
  Task        8 on host f020 reporting.
  Task        9 on host f020 reporting.
  Task       10 on host f020 reporting.
  Task       11 on host f020 reporting.
  Task       12 on host f020 reporting.
  Task       13 on host f020 reporting.
  Task       14 on host f020 reporting.
  Task       15 on host f020 reporting.
  Task       16 on host f020 reporting.
  Task       17 on host f020 reporting.
  Task       18 on host f020 reporting.
  Task       19 on host f020 reporting.
  Task       20 on host f020 reporting.
  Task       21 on host f020 reporting.
  Task       22 on host f020 reporting.
  Task       23 on host f020 reporting.
  Task       24 on host f020 reporting.
  Task       25 on host f020 reporting.
  Task       26 on host f020 reporting.
  Task       27 on host f020 reporting.
  Task       28 on host f020 reporting.
  Task       29 on host f020 reporting.
  Task       30 on host f020 reporting.
  Task       31 on host f020 reporting.
  Task       32 on host f020 reporting.
  Task       33 on host f020 reporting.
  Task       34 on host f020 reporting.
  Task       35 on host f020 reporting.
  Task       36 on host f020 reporting.
  Task       37 on host f020 reporting.
  Task       38 on host f020 reporting.
  Task       39 on host f020 reporting.
  Task       40 on host f020 reporting.
  Task       41 on host f020 reporting.
  Task       42 on host f020 reporting.
  Task       43 on host f020 reporting.
  Task       44 on host f020 reporting.
  Task       45 on host f020 reporting.
  Task       46 on host f020 reporting.
  Task       47 on host f020 reporting.
  Task       48 on host f020 reporting.
  Task       49 on host f020 reporting.
  Task       50 on host f020 reporting.
  Task       51 on host f020 reporting.
  Task       52 on host f020 reporting.
  Task       53 on host f020 reporting.

  Performing system and environment tests:
  | Environment variable OMP_NUM_THREADS correctly set to 1.
  | Checking for ScaLAPACK...
  | Testing pdtran()...
  | All pdtran() tests passed.

  Obtaining array dimensions for all initial allocations:
  
  -----------------------------------------------------------------------
  Parsing control.in (first pass over file, find array dimensions only).
  The contents of control.in will be repeated verbatim below
  unless switched off by setting 'verbatim_writeout .false.' .
  in the first line of control.in .
  -----------------------------------------------------------------------
  
  xc                                 pbe
  relativistic                       atomic_zora scalar
  occupation_type                    gaussian 0.01
  load_balancing                     .true.
  KS_method                          scalapack_fast
  mixer                              pulay
  n_max_pulay                        5
  charge_mix_param                   0.4
  sc_accuracy_etot                   1e-6
  sc_accuracy_eev                    1e-3
  sc_accuracy_rho                    1e-5
  sc_iter_limit                      500
  prodbas_threshold                  1e-4
  basis_threshold                    1e-5
  override_illconditioning           .true.
  use_logsbt                         .true.
  spin                               collinear
  charge                             -1.0
  default_initial_moment             1.0
  ################################################################################
  #
  #  FHI-aims code project
  # Volker Blum, Fritz Haber Institute Berlin, 2009
  #
  #  Suggested "tight" defaults for C atom (to be pasted into control.in file)
  #
  ################################################################################
    species        C
  #     global species definitions
      nucleus             6
      mass                12.0107
  #
      l_hartree           6
  #
      cut_pot             4.0  2.0  1.0
      basis_dep_cutoff    1e-4
  #
      radial_base         34 7.0
      radial_multiplier   2
      angular_grids specified
        division   0.2187   50
        division   0.4416  110
        division   0.6335  194
        division   0.7727  302
        division   0.8772  434
  #      division   0.9334  590
  #      division   0.9924  770
  #      division   1.0230  974
  #      division   1.5020 1202
  #     outer_grid  974
        outer_grid  434
  ################################################################################
  #
  #  Definition of "minimal" basis
  #
  ################################################################################
  #     valence basis states
      valence      2  s   2.
