------------------------------------------------------------
          Invoking FHI-aims ...

          When using FHI-aims, please cite the following reference:

            Volker Blum, Ralf Gehrke, Felix Hanke, Paula Havu,
            Ville Havu, Xinguo Ren, Karsten Reuter, and Matthias Scheffler,
            'Ab Initio Molecular Simulations with Numeric Atom-Centered Orbitals',
            Computer Physics Communications 180, 2175-2196 (2009)

          In addition, many other developments in FHI-aims are likely important for
          your particular application. A partial list of references is given at the end of
          this file. Thank you for giving credit to the authors of these developments.

          For any questions about FHI-aims, please visit our slack channel at

            https://fhi-aims.slack.com

          and our main development and support site at

            https://aims-git.rz-berlin.mpg.de .

          The latter site, in particular, has a wiki to collect information, as well
          as an issue tracker to log discussions, suggest improvements, and report issues
          or bugs. https://aims-git.rz-berlin.mpg.de is also the main development site
          of the project and all new and updated code versions can be obtained there.
          Please send an email to aims-coordinators@fhi-berlin.mpg.de and we will add
          you to these sites. They are for you and everyone is welcome there.

------------------------------------------------------------



  Date     :  20241106, Time     :  123952.797
  Time zero on CPU 1             :   0.359239000000000E+00  s.
  Internal wall clock time zero  :           500128792.797  s.

  FHI-aims created a unique identifier for this run for later identification
  aims_uuid : 4BB090B4-6A10-4BBC-A84F-475230FFCFED

  Build configuration of the current instance of FHI-aims
  -------------------------------------------------------
  FHI-aims version      : 221103
  Commit number         : GITDIR-NOTFOUND
  CMake host system     : Linux-3.10.0-1160.59.1.el7.x86_64
  CMake version         : 3.17.5
  Fortran compiler      : /home/spack/spack/opt/spack/linux-centos7-broadwell/gcc-8.2.0/intel-oneapi-mpi-2021.13.1-tc3o22m5brhwlepjze7ymovtbug6ollk/mpi/2021.13/bin/mpiifort (Intel) version 20.2.8.20221119
  Fortran compiler flags: -O3 -ip -fp-model precise
  C compiler            : /home/spack/spack/opt/spack/linux-centos7-broadwell/gcc-8.2.0/intel-oneapi-compilers-2023.0.0-qdtyksft5ugoazragh7yusjezd4gp7hm/compiler/2023.0.0/linux/bin/intel64/icc (Intel) version 20.2.8.20221119
  C compiler flags      : -O3 -ip -fp-model precise -std=gnu99
  HIP compiler          :
  HIP compiler flags    :
  HIP GPU arch          :
  Using MPI
  Using ScaLAPACK
  Using LibXC
  Using i-PI
  Using RLSY
  Linking against: /home/spack/spack/opt/spack/linux-centos7-broadwell/gcc-8.2.0/intel-oneapi-mkl-2024.2.1-2ept5lpbp5bastej6jsrfm45y5ab2lpn/mkl/latest/lib/intel64/libmkl_intel_lp64.so
                   /home/spack/spack/opt/spack/linux-centos7-broadwell/gcc-8.2.0/intel-oneapi-mkl-2024.2.1-2ept5lpbp5bastej6jsrfm45y5ab2lpn/mkl/latest/lib/intel64/libmkl_sequential.so
                   /home/spack/spack/opt/spack/linux-centos7-broadwell/gcc-8.2.0/intel-oneapi-mkl-2024.2.1-2ept5lpbp5bastej6jsrfm45y5ab2lpn/mkl/latest/lib/intel64/libmkl_core.so
                   /home/spack/spack/opt/spack/linux-centos7-broadwell/gcc-8.2.0/intel-oneapi-mkl-2024.2.1-2ept5lpbp5bastej6jsrfm45y5ab2lpn/mkl/latest/lib/intel64/libmkl_blacs_intelmpi_lp64.so
                   /home/spack/spack/opt/spack/linux-centos7-broadwell/gcc-8.2.0/intel-oneapi-mkl-2024.2.1-2ept5lpbp5bastej6jsrfm45y5ab2lpn/mkl/latest/lib/intel64/libmkl_scalapack_lp64.so

  Using       56 parallel tasks.
  Task        0 on host f001 reporting.
  Task        1 on host f001 reporting.
  Task        2 on host f001 reporting.
  Task        3 on host f001 reporting.
  Task        4 on host f001 reporting.
  Task        5 on host f001 reporting.
  Task        6 on host f001 reporting.
  Task        7 on host f001 reporting.
  Task        8 on host f001 reporting.
  Task        9 on host f001 reporting.
  Task       10 on host f001 reporting.
  Task       11 on host f001 reporting.
  Task       12 on host f001 reporting.
  Task       13 on host f001 reporting.
  Task       14 on host f001 reporting.
  Task       15 on host f001 reporting.
  Task       16 on host f001 reporting.
  Task       17 on host f001 reporting.
  Task       18 on host f001 reporting.
  Task       19 on host f001 reporting.
  Task       20 on host f001 reporting.
  Task       21 on host f001 reporting.
  Task       22 on host f001 reporting.
  Task       23 on host f001 reporting.
  Task       24 on host f001 reporting.
  Task       25 on host f001 reporting.
  Task       26 on host f001 reporting.
  Task       27 on host f001 reporting.
  Task       28 on host f001 reporting.
  Task       29 on host f001 reporting.
  Task       30 on host f001 reporting.
  Task       31 on host f001 reporting.
  Task       32 on host f001 reporting.
  Task       33 on host f001 reporting.
  Task       34 on host f001 reporting.
  Task       35 on host f001 reporting.
  Task       36 on host f001 reporting.
  Task       37 on host f001 reporting.
  Task       38 on host f001 reporting.
  Task       39 on host f001 reporting.
  Task       40 on host f001 reporting.
  Task       41 on host f001 reporting.
  Task       42 on host f001 reporting.
  Task       43 on host f001 reporting.
  Task       44 on host f001 reporting.
  Task       45 on host f001 reporting.
  Task       46 on host f001 reporting.
  Task       47 on host f001 reporting.
  Task       48 on host f001 reporting.
  Task       49 on host f001 reporting.
  Task       50 on host f001 reporting.
  Task       51 on host f001 reporting.
  Task       52 on host f001 reporting.
  Task       53 on host f001 reporting.
  Task       54 on host f001 reporting.
  Task       55 on host f001 reporting.

  Performing system and environment tests:
  *** Environment variable OMP_NUM_THREADS is not set
  *** For performance reasons you might want to set it to 1
  | Checking for ScaLAPACK...
  | Testing pdtran()...
  | All pdtran() tests passed.

  Obtaining array dimensions for all initial allocations:
  
  -----------------------------------------------------------------------
  Parsing control.in (first pass over file, find array dimensions only).
  The contents of control.in will be repeated verbatim below
  unless switched off by setting 'verbatim_writeout .false.' .
  in the first line of control.in .
  -----------------------------------------------------------------------
  
  #=====================================================
  #FHI-aims file: ./control.in
  #Created using the Atomic Simulation Environment (ASE)
  #
  #List of parameters used to initialize the calculator:
  #=====================================================
  fo_folders                         f_uMFS6L f_NYgHGF
  packed_matrix_format               index
  relativistic                       zora scalar 1e-12
  sc_accuracy_eev                    1E-2
  fo_dft                             final
  charge                             1
  sc_iter_limit                      200
  n_max_pulay                        10
  occupation_type                    gaussian 0.01
  sc_accuracy_etot                   1E-6
  xc                                 blyp
  mixer                              pulay
  sc_accuracy_rho                    1E-4
  fo_orbitals                        93.0 93.0 1 1 hole
  spin                               collinear
  fo_flavour                         None
  charge_mix_param                   0.5
  default_initial_moment             1
  #=======================================================
  
  ################################################################################
  #
  #  FHI-aims code project
  #  VB, Fritz-Haber Institut, 2009
  #
  #  Suggested "light" defaults for H atom (to be pasted into control.in file)
  #  Be sure to double-check any results obtained with these settings for post-processing,
  #  e.g., with the "tight" defaults and larger basis sets.
  #
  ################################################################################
    species        H
  #     global species definitions
      nucleus             1
      mass                1.00794
  #
      l_hartree           4
  #
      cut_pot             3.5  1.5  1.0
      basis_dep_cutoff    1e-4
  #
      radial_base         24 5.0
      radial_multiplier   1
      angular_grids       specified
        division   0.2421   50
        division   0.3822  110
        division   0.4799  194
        division   0.5341  302
  #      division   0.5626  434
  #      division   0.5922  590
  #      division   0.6542  770
  #      division   0.6868 1202
  #      outer_grid  770
        outer_grid  302
  ################################################################################
  #
  #  Definition of "minimal" basis
  #
  ################################################################################
  #     valence basis states
      valence      1  s   1.
  #     ion occupancy
      ion_occ      1  s   0.5
  ################################################################################
  #
  #  Suggested additional basis functions. For production calculations,
  #  uncomment them one after another (the most important basis functions are
  #  listed first).
  #
  #  Basis constructed for dimers: 0.5 A, 0.7 A, 1.0 A, 1.5 A, 2.5 A
  #
  ################################################################################
  #  "First tier" - improvements: -1014.90 meV to -62.69 meV
       hydro 2 s 2.1
       hydro 2 p 3.5
  #  "Second tier" - improvements: -12.89 meV to -1.83 meV
  #     hydro 1 s 0.85
  #     hydro 2 p 3.7
  #     hydro 2 s 1.2
  #     hydro 3 d 7
  #  "Third tier" - improvements: -0.25 meV to -0.12 meV
  #     hydro 4 f 11.2
  #     hydro 3 p 4.8
  #     hydro 4 d 9
  #     hydro 3 s 3.2
  ################################################################################
  #
  #  FHI-aims code project
  #  VB, Fritz-Haber Institut, 2009
  #
  #  Suggested "light" defaults for C atom (to be pasted into control.in file)
  #  Be sure to double-check any results obtained with these settings for post-processing,
  #  e.g., with the "tight" defaults and larger basis sets.
  #
  ################################################################################
    species        C
  #     global species definitions
      nucleus             6
      mass                12.0107
  #
      l_hartree           4
  #
      cut_pot             3.5  1.5  1.0
      basis_dep_cutoff    1e-4
  #
      radial_base         34 5.0
      radial_multiplier   1
      angular_grids specified
        division   0.3326   50
        division   0.5710  110
        division   0.7727  194
        division   0.8772  302
  #      division   0.9334  434
  #      division   0.9625  590
  #      division   0.9924  770
  #      division   1.0230  974
  #      division   1.4589 1202
  #     outer_grid  974
       outer_grid 302
  ################################################################################
  #
  #  Definition of "minimal" basis
  #
  ################################################################################
  #     valence basis states
      valence      2  s   2.
      valence      2  p   2.
  #     ion occupancy
      ion_occ      2  s   1.
      ion_occ      2  p   1.
  ################################################################################
  #
  #  Suggested additional basis functions. For production calculations,
  #  uncomment them one after another (the most important basis functions are
  #  listed first).
  #
  #  Constructed for dimers: 1.0 A, 1.25 A, 1.5 A, 2.0 A, 3.0 A
  #
  ################################################################################
  #  "First tier" - improvements: -1214.57 meV to -155.61 meV
       hydro 2 p 1.7
       hydro 3 d 6
       hydro 2 s 4.9
  #  "Second tier" - improvements: -67.75 meV to -5.23 meV
  #     hydro 4 f 9.8
  #     hydro 3 p 5.2
  #     hydro 3 s 4.3
  #     hydro 5 g 14.4
  #     hydro 3 d 6.2
  #  "Third tier" - improvements: -2.43 meV to -0.60 meV
  #     hydro 2 p 5.6
  #     hydro 2 s 1.4
  #     hydro 3 d 4.9
  #     hydro 4 f 11.2
  #  "Fourth tier" - improvements: -0.39 meV to -0.18 meV
  #     hydro 2 p 2.1
  #     hydro 5 g 16.4
  #     hydro 4 d 13.2
  #     hydro 3 s 13.6
  #     hydro 4 f 17.6
  #  Further basis functions - improvements: -0.08 meV and below
  #     hydro 3 s 2
  #     hydro 3 p 6
  #     hydro 4 d 20
  
  -----------------------------------------------------------------------
  Completed first pass over input file control.in .
  -----------------------------------------------------------------------
  
  
  -----------------------------------------------------------------------
  Parsing geometry.in (first pass over file, find array dimensions only).
  The contents of geometry.in will be repeated verbatim below
  unless switched off by setting 'verbatim_writeout .false.' .
  in the first line of geometry.in .
  -----------------------------------------------------------------------
  
  #=======================================================
  #FHI-aims file: ./geometry.in
  #Created using the Atomic Simulation Environment (ASE)
  #=======================================================
  atom 38.8222807900000006 16.9993551798346303 24.2863544746540008 H
  atom 37.5517251499999958 17.1024344691939483 26.4403106868955717 H
  atom 38.8029135200000042 17.9171698448913332 24.8733030135659163 C
  atom 38.0969098799999983 17.9735884444462179 26.0764116506180059 C
  atom 36.7592352799999986 25.7408973612965646 33.3890386440912152 H
  atom 36.2223620099999977 26.9866047540255352 35.4397353911538460 H
  atom 37.5204395599999998 24.5755336035370782 31.3419650361576743 H
  atom 37.6647923700000007 20.7399017022782211 28.8940816620690057 H
  atom 37.6079451199999966 22.7860827456245225 30.1664828349648673 H
  atom 37.5220861700000015 19.1467125465147525 27.7602655608606845 H
  atom 37.0696604700000023 26.7819179862235544 33.4719179516690559 C
  atom 37.7963643500000046 27.3698277499811233 32.4320770216213958 C
  atom 36.7657433100000048 27.4872562916818808 34.6419654441682354 C
  atom 38.9662415499999994 27.3660640500354901 30.1993175333222084 C
  atom 38.6715767700000015 25.2153985009247243 29.5000516814086282 C
  atom 38.0365341800000039 25.3677435042802912 30.8084577993997755 C
  atom 38.1997837999999987 26.6668227791075836 31.2371204476097546 C
  atom 38.6997259599999950 23.9811600277691639 28.7244734615886728 C
  atom 38.7605721199999991 21.5490122890130849 27.2038872583504308 C
  atom 38.1390160499999951 21.6189870790229648 28.4642867828811923 C
  atom 38.1074168199999974 22.7967799675141798 29.2000104722811997 C
  atom 38.7792336999999989 20.2988714513245050 26.4099668966894789 C
  atom 38.0865597600000001 19.1452522974704529 26.8304774818590133 C
  atom 36.9692956700000011 29.3259035349818546 35.7343418915876399 H
  atom 38.1481900200000013 31.3053009342527275 34.8561835451754405 H
  atom 37.1723775700000019 28.7977047581384085 34.8029686892169963 C
  atom 37.8957098200000004 29.4483674164900293 33.7742236227521602 C
  atom 38.3584072299999974 30.7836176811821645 33.9220929884579832 C
  atom 39.0807985600000052 31.3981750255778138 32.9178041111144779 C
  atom 38.9612233100000012 29.3875512277409925 31.5478046279288691 C
  atom 38.2040179400000000 28.7342019900181853 32.5760968020025672 C
  atom 39.7853908200000035 26.6647855109148466 28.2396521568778631 H
  atom 39.8072672099999991 24.7989420678404535 27.0462807062351942 H
  atom 39.8640360499999957 22.7589185792102597 25.7704828404058155 H
  atom 40.0616292499999957 21.0650385324278382 24.8318633597769960 H
  atom 40.0733907500000015 19.0177245725917778 23.5137200553764281 H
  atom 39.2315809899999977 26.4329769667447785 29.1429460309980968 C
  atom 39.3252809399999990 23.9156856893313225 27.4629417060800733 C
  atom 39.3556256100000041 22.7391204048663731 26.7315204943958520 C
  atom 39.4882169199999993 20.2154721984332006 25.1948566112722929 C
  atom 39.4992727300000013 19.0468294176098141 24.4392056566623097 C
  atom 39.4352901700000018 32.4206651652301758 33.0332916708540978 H
  atom 39.9583632800000004 31.1956181896012446 30.9558742727144605 H
  atom 39.9049660700000004 29.1950569132754261 29.5919888368091826 H
  atom 39.3773451799999989 30.7058386977262892 31.7350756316634985 C
  atom 39.3223797699999977 28.6763087949810043 30.3542067310906276 C
  atom 38.9747098300000019 23.4962405126289298 34.9005669995067436 H
  atom 38.4516367199999962 24.7212874882578646 36.9779843976463809 H
  atom 38.5050339299999962 26.7218487645836831 38.3418698335516552 H
  atom 39.0326548200000047 25.2110669801328200 36.1987830386973428 C
  atom 39.0876202299999989 27.2405968828781013 37.5796519392702066 C
  atom 38.6246091800000002 29.2521201669442625 39.6942065134829747 H
  atom 38.6027327900000046 31.1179636100186556 40.8875779641256472 H
  atom 38.5459639500000009 33.1579870986488459 42.1633758299550223 H
  atom 38.3483707500000008 34.8518671454312710 43.1019953105838454 H
  atom 38.3366092499999951 36.8991811052673313 44.4201386149844097 H
  atom 39.1784190099999989 29.4839287111143307 38.7909126393627446 C
  atom 39.0847190599999976 32.0012199885277866 40.4709169642807609 C
  atom 39.0543743899999996 33.1777852729927361 41.2023381759649823 C
  atom 38.9217830799999973 35.7014334794259085 42.7390020590885484 C
  atom 38.9107272700000024 36.8700762602492915 43.4946530136985245 C
  atom 41.4407043300000026 26.5910021428772509 32.1995167787732015 H
  atom 40.2618099799999953 24.6116047436063781 33.0776751251853938 H
  atom 41.2376224300000018 27.1192009197207007 33.1308899811438451 C
  atom 40.5142901800000033 26.4685382613690798 34.1596350476086741 C
  atom 40.0515927699999992 25.1332879966769411 34.0117656819028582 C
  atom 39.3292014399999985 24.5187306522812918 35.0160545592463563 C
  atom 39.4487766900000025 26.5293544501181131 36.3860540424319652 C
  atom 40.2059820599999966 27.1827036878409203 35.3577618683582742 C
  atom 41.6507647199999980 30.1760083165625410 34.5448200262696190 H
  atom 42.1876379899999989 28.9303009238335704 32.4941232792069954 H
  atom 40.8895604399999968 31.3413720743220310 36.5918936342031600 H
  atom 40.7452076299999959 35.1770039755808881 39.0397770082918356 H
  atom 40.8020548800000000 33.1308229322345866 37.7673758353959741 H
  atom 40.8879138300000022 36.7701931313443566 40.1735931095001533 H
  atom 41.3403395300000014 29.1349876916355512 34.4619407186917783 C
  atom 40.6136356499999991 28.5470779278779858 35.5017816487394384 C
  atom 41.6442566899999989 28.4296493861772248 33.2918932261925988 C
  atom 39.4437584500000042 28.5508416278236190 37.7345411370386330 C
  atom 39.7384232299999951 30.7015071769343848 38.4338069889522131 C
  atom 40.3734658199999998 30.5491621735788144 37.1254008709610588 C
  atom 40.2102162000000050 29.2500828987515256 36.6967382227510868 C
  atom 39.7102740400000016 31.9357456500899417 39.2093852087721615 C
  atom 39.6494278800000046 34.3678933888460207 40.7299714120104142 C
  atom 40.2709839500000015 34.2979185988361408 39.4695718874796455 C
  atom 40.3025831799999992 33.1201257103449294 38.7338481980796416 C
  atom 39.6307663000000048 35.6180342265346042 41.5238917736713589 C
  atom 40.3234402399999965 36.7716533803886563 41.1033811885018281 C
  atom 39.5877192100000030 38.9175504980244824 43.6475041957068370 H
  atom 40.8582748500000008 38.8144712086651609 41.4935479834652625 H
  atom 39.6070864799999995 37.9998364329677756 43.0605556567949179 C
  atom 40.3130901199999983 37.9433172334128912 41.8574470197428354 C
  
  -----------------------------------------------------------------------
  Completed first pass over input file geometry.in .
  -----------------------------------------------------------------------
  

  Basic array size parameters:
  | Number of species                 :        2
  | Number of atoms                   :       92
  | Max. basis fn. angular momentum   :        2
  | Max. atomic/ionic basis occupied n:        2
  | Max. number of basis fn. types    :        2
  | Max. radial fns per species/type  :        3
  | Max. logarithmic grid size        :     1277
  | Max. radial integration grid size :       34
  | Max. angular integration grid size:      302
  | Max. angular grid division number :        8
  | Radial grid for Hartree potential :     1277
  | Number of spin channels           :        2

------------------------------------------------------------
          Reading file control.in.
------------------------------------------------------------
  Using packed matrix format  2
  Scalar relativistic treatment of kinetic energy: ZORA.
  Threshold value for ZORA:   0.100000E-11
  Convergence accuracy of sum of eigenvalues:  0.1000E-01
  No previous restart file was found for FO_DFT run:
  ... Generating new file from restart.f1 and restart.f2!
  Charged system requested: Charge =   0.100000E+01.
  Maximum number of s.-c. iterations  :   200
  Pulay mixing - number of memorized iterations:   10
  Occupation type: Gaussian broadening, width =   0.100000E-01 eV.
  Convergence accuracy of total energy:  0.1000E-05
  XC: Using BLYP gradient-corrected functional.
  Using pulay charge density mixing.
  Convergence accuracy of self-consistent charge density:  0.1000E-03
  Spin treatment: Spin density functional theory - collinear spins.
  Charge density mixing - mixing parameter:     0.5000
  Initial spin moment per atom:   1.0000
 
  Reading configuration options for species H                   .
  | Found nuclear charge :   1.0000
  | Found atomic mass :    1.00794000000000      amu
  | Found l_max for Hartree potential  :   4
  | Found cutoff potl. onset [A], width [A], scale factor :    3.50000    1.50000    1.00000
  | Threshold for basis-dependent cutoff potential is   0.100000E-03
  | Found data for basic radial integration grid :    24 points, outermost radius =    5.000 A
  | Found multiplier for basic radial grid :   1
  | Found angular grid specification: user-specified.
  | Specified grid contains     5 separate shells.
  | Check grid settings after all constraints further below.
  | Found free-atom valence shell :  1 s   1.000
  | No ionic wave fns used. Skipping ion_occ.
  | Found hydrogenic basis function :  2 s   2.100
  | Found hydrogenic basis function :  2 p   3.500
  Species H                   : Missing cutoff potential type.
  Defaulting to exp(1/x)/(1-x)^2 type cutoff potential.
  Species H : No 'logarithmic' tag. Using default grid for free atom:
  | Default logarithmic grid data [bohr] : 0.1000E-03 0.1000E+03 0.1012E+01
  Species H : On-site basis accuracy parameter (for Gram-Schmidt orthonormalisation) not specified.
  Using default value basis_acc =  0.1000000E-03.
  Species H                   : Using default innermost maximum threshold i_radial=  2 for radial functions.
  Species H                   : Default cutoff onset for free atom density etc. : 0.35000000E+01 AA.
  Species H                   : Basic radial grid will be enhanced according to radial_multiplier =   1, to contain    24 grid points.
 
  Reading configuration options for species C                   .
  | Found nuclear charge :   6.0000
  | Found atomic mass :    12.0107000000000      amu
  | Found l_max for Hartree potential  :   4
  | Found cutoff potl. onset [A], width [A], scale factor :    3.50000    1.50000    1.00000
  | Threshold for basis-dependent cutoff potential is   0.100000E-03
  | Found data for basic radial integration grid :    34 points, outermost radius =    5.000 A
  | Found multiplier for basic radial grid :   1
  | Found angular grid specification: user-specified.
  | Specified grid contains     5 separate shells.
  | Check grid settings after all constraints further below.
  | Found free-atom valence shell :  2 s   2.000
  | Found free-atom valence shell :  2 p   2.000
  | No ionic wave fns used. Skipping ion_occ.
  | No ionic wave fns used. Skipping ion_occ.
  | Found hydrogenic basis function :  2 p   1.700
  | Found hydrogenic basis function :  3 d   6.000
  | Found hydrogenic basis function :  2 s   4.900
  Species C                   : Missing cutoff potential type.
  Defaulting to exp(1/x)/(1-x)^2 type cutoff potential.
  Species C : No 'logarithmic' tag. Using default grid for free atom:
  | Default logarithmic grid data [bohr] : 0.1000E-03 0.1000E+03 0.1012E+01
  Species C : On-site basis accuracy parameter (for Gram-Schmidt orthonormalisation) not specified.
  Using default value basis_acc =  0.1000000E-03.
  Species C                   : Using default innermost maximum threshold i_radial=  2 for radial functions.
  Species C                   : Default cutoff onset for free atom density etc. : 0.35000000E+01 AA.
  Species C                   : Basic radial grid will be enhanced according to radial_multiplier =   1, to contain    34 grid points.
 
  Finished reading input file 'control.in'.
 
------------------------------------------------------------


------------------------------------------------------------
          Reading geometry description geometry.in.
------------------------------------------------------------
  | The smallest distance between any two atoms is         1.08461069 AA.
  | The first atom of this pair is atom number                     52 .
  | The second atom of this pair is atom number                    57 .
  Input structure read successfully.
  The structure contains       92 atoms,  and a total of        371.000 electrons.

  Input geometry:
  | No unit cell requested.
  | Atomic structure:
  |       Atom                x [A]            y [A]            z [A]
  |    1: Species H            38.82228079       16.99935518       24.28635447
  |    2: Species H            37.55172515       17.10243447       26.44031069
  |    3: Species C            38.80291352       17.91716984       24.87330301
  |    4: Species C            38.09690988       17.97358844       26.07641165
  |    5: Species H            36.75923528       25.74089736       33.38903864
  |    6: Species H            36.22236201       26.98660475       35.43973539
  |    7: Species H            37.52043956       24.57553360       31.34196504
  |    8: Species H            37.66479237       20.73990170       28.89408166
  |    9: Species H            37.60794512       22.78608275       30.16648283
  |   10: Species H            37.52208617       19.14671255       27.76026556
  |   11: Species C            37.06966047       26.78191799       33.47191795
  |   12: Species C            37.79636435       27.36982775       32.43207702
  |   13: Species C            36.76574331       27.48725629       34.64196544
  |   14: Species C            38.96624155       27.36606405       30.19931753
  |   15: Species C            38.67157677       25.21539850       29.50005168
  |   16: Species C            38.03653418       25.36774350       30.80845780
  |   17: Species C            38.19978380       26.66682278       31.23712045
  |   18: Species C            38.69972596       23.98116003       28.72447346
  |   19: Species C            38.76057212       21.54901229       27.20388726
  |   20: Species C            38.13901605       21.61898708       28.46428678
  |   21: Species C            38.10741682       22.79677997       29.20001047
  |   22: Species C            38.77923370       20.29887145       26.40996690
  |   23: Species C            38.08655976       19.14525230       26.83047748
  |   24: Species H            36.96929567       29.32590353       35.73434189
  |   25: Species H            38.14819002       31.30530093       34.85618355
  |   26: Species C            37.17237757       28.79770476       34.80296869
  |   27: Species C            37.89570982       29.44836742       33.77422362
  |   28: Species C            38.35840723       30.78361768       33.92209299
  |   29: Species C            39.08079856       31.39817503       32.91780411
  |   30: Species C            38.96122331       29.38755123       31.54780463
  |   31: Species C            38.20401794       28.73420199       32.57609680
  |   32: Species H            39.78539082       26.66478551       28.23965216
  |   33: Species H            39.80726721       24.79894207       27.04628071
  |   34: Species H            39.86403605       22.75891858       25.77048284
  |   35: Species H            40.06162925       21.06503853       24.83186336
  |   36: Species H            40.07339075       19.01772457       23.51372006
  |   37: Species C            39.23158099       26.43297697       29.14294603
  |   38: Species C            39.32528094       23.91568569       27.46294171
  |   39: Species C            39.35562561       22.73912040       26.73152049
  |   40: Species C            39.48821692       20.21547220       25.19485661
  |   41: Species C            39.49927273       19.04682942       24.43920566
  |   42: Species H            39.43529017       32.42066517       33.03329167
  |   43: Species H            39.95836328       31.19561819       30.95587427
  |   44: Species H            39.90496607       29.19505691       29.59198884
  |   45: Species C            39.37734518       30.70583870       31.73507563
  |   46: Species C            39.32237977       28.67630879       30.35420673
  |   47: Species H            38.97470983       23.49624051       34.90056700
  |   48: Species H            38.45163672       24.72128749       36.97798440
  |   49: Species H            38.50503393       26.72184876       38.34186983
  |   50: Species C            39.03265482       25.21106698       36.19878304
  |   51: Species C            39.08762023       27.24059688       37.57965194
  |   52: Species H            38.62460918       29.25212017       39.69420651
  |   53: Species H            38.60273279       31.11796361       40.88757796
  |   54: Species H            38.54596395       33.15798710       42.16337583
  |   55: Species H            38.34837075       34.85186715       43.10199531
  |   56: Species H            38.33660925       36.89918111       44.42013861
  |   57: Species C            39.17841901       29.48392871       38.79091264
  |   58: Species C            39.08471906       32.00121999       40.47091696
  |   59: Species C            39.05437439       33.17778527       41.20233818
  |   60: Species C            38.92178308       35.70143348       42.73900206
  |   61: Species C            38.91072727       36.87007626       43.49465301
  |   62: Species H            41.44070433       26.59100214       32.19951678
  |   63: Species H            40.26180998       24.61160474       33.07767513
  |   64: Species C            41.23762243       27.11920092       33.13088998
  |   65: Species C            40.51429018       26.46853826       34.15963505
  |   66: Species C            40.05159277       25.13328800       34.01176568
  |   67: Species C            39.32920144       24.51873065       35.01605456
  |   68: Species C            39.44877669       26.52935445       36.38605404
  |   69: Species C            40.20598206       27.18270369       35.35776187
  |   70: Species H            41.65076472       30.17600832       34.54482003
  |   71: Species H            42.18763799       28.93030092       32.49412328
  |   72: Species H            40.88956044       31.34137207       36.59189363
  |   73: Species H            40.74520763       35.17700398       39.03977701
  |   74: Species H            40.80205488       33.13082293       37.76737584
  |   75: Species H            40.88791383       36.77019313       40.17359311
  |   76: Species C            41.34033953       29.13498769       34.46194072
  |   77: Species C            40.61363565       28.54707793       35.50178165
  |   78: Species C            41.64425669       28.42964939       33.29189323
  |   79: Species C            39.44375845       28.55084163       37.73454114
  |   80: Species C            39.73842323       30.70150718       38.43380699
  |   81: Species C            40.37346582       30.54916217       37.12540087
  |   82: Species C            40.21021620       29.25008290       36.69673822
  |   83: Species C            39.71027404       31.93574565       39.20938521
  |   84: Species C            39.64942788       34.36789339       40.72997141
  |   85: Species C            40.27098395       34.29791860       39.46957189
  |   86: Species C            40.30258318       33.12012571       38.73384820
  |   87: Species C            39.63076630       35.61803423       41.52389177
  |   88: Species C            40.32344024       36.77165338       41.10338119
  |   89: Species H            39.58771921       38.91755050       43.64750420
  |   90: Species H            40.85827485       38.81447121       41.49354798
  |   91: Species C            39.60708648       37.99983643       43.06055566
  |   92: Species C            40.31309012       37.94331723       41.85744702

  Initial moments and charges:
  |  Atom   Moment         Charge        Species
  |     1   0.100000E+01   0.000000E+00   H
  |     2   0.100000E+01   0.000000E+00   H
  |     3   0.100000E+01   0.000000E+00   C
  |     4   0.100000E+01   0.000000E+00   C
  |     5   0.100000E+01   0.000000E+00   H
  |     6   0.100000E+01   0.000000E+00   H
  |     7   0.100000E+01   0.000000E+00   H
  |     8   0.100000E+01   0.000000E+00   H
  |     9   0.100000E+01   0.000000E+00   H
  |    10   0.100000E+01   0.000000E+00   H
  |    11   0.100000E+01   0.000000E+00   C
  |    12   0.100000E+01   0.000000E+00   C
  |    13   0.100000E+01   0.000000E+00   C
  |    14   0.100000E+01   0.000000E+00   C
  |    15   0.100000E+01   0.000000E+00   C
  |    16   0.100000E+01   0.000000E+00   C
  |    17   0.100000E+01   0.000000E+00   C
  |    18   0.100000E+01   0.000000E+00   C
  |    19   0.100000E+01   0.000000E+00   C
  |    20   0.100000E+01   0.000000E+00   C
  |    21   0.100000E+01   0.000000E+00   C
  |    22   0.100000E+01   0.000000E+00   C
  |    23   0.100000E+01   0.000000E+00   C
  |    24   0.100000E+01   0.000000E+00   H
  |    25   0.100000E+01   0.000000E+00   H
  |    26   0.100000E+01   0.000000E+00   C
  |    27   0.100000E+01   0.000000E+00   C
  |    28   0.100000E+01   0.000000E+00   C
  |    29   0.100000E+01   0.000000E+00   C
  |    30   0.100000E+01   0.000000E+00   C
  |    31   0.100000E+01   0.000000E+00   C
  |    32   0.100000E+01   0.000000E+00   H
  |    33   0.100000E+01   0.000000E+00   H
  |    34   0.100000E+01   0.000000E+00   H
  |    35   0.100000E+01   0.000000E+00   H
  |    36   0.100000E+01   0.000000E+00   H
  |    37   0.100000E+01   0.000000E+00   C
  |    38   0.100000E+01   0.000000E+00   C
  |    39   0.100000E+01   0.000000E+00   C
  |    40   0.100000E+01   0.000000E+00   C
  |    41   0.100000E+01   0.000000E+00   C
  |    42   0.100000E+01   0.000000E+00   H
  |    43   0.100000E+01   0.000000E+00   H
  |    44   0.100000E+01   0.000000E+00   H
  |    45   0.100000E+01   0.000000E+00   C
  |    46   0.100000E+01   0.000000E+00   C
  |    47   0.100000E+01   0.000000E+00   H
  |    48   0.100000E+01   0.000000E+00   H
  |    49   0.100000E+01   0.000000E+00   H
  |    50   0.100000E+01   0.000000E+00   C
  |    51   0.100000E+01   0.000000E+00   C
  |    52   0.100000E+01   0.000000E+00   H
  |    53   0.100000E+01   0.000000E+00   H
  |    54   0.100000E+01   0.000000E+00   H
  |    55   0.100000E+01   0.000000E+00   H
  |    56   0.100000E+01   0.000000E+00   H
  |    57   0.100000E+01   0.000000E+00   C
  |    58   0.100000E+01   0.000000E+00   C
  |    59   0.100000E+01   0.000000E+00   C
  |    60   0.100000E+01   0.000000E+00   C
  |    61   0.100000E+01   0.000000E+00   C
  |    62   0.100000E+01   0.000000E+00   H
  |    63   0.100000E+01   0.000000E+00   H
  |    64   0.100000E+01   0.000000E+00   C
  |    65   0.100000E+01   0.000000E+00   C
  |    66   0.100000E+01   0.000000E+00   C
  |    67   0.100000E+01   0.000000E+00   C
  |    68   0.100000E+01   0.000000E+00   C
  |    69   0.100000E+01   0.000000E+00   C
  |    70   0.100000E+01   0.000000E+00   H
  |    71   0.100000E+01   0.000000E+00   H
  |    72   0.100000E+01   0.000000E+00   H
  |    73   0.100000E+01   0.000000E+00   H
  |    74   0.100000E+01   0.000000E+00   H
  |    75   0.100000E+01   0.000000E+00   H
  |    76   0.100000E+01   0.000000E+00   C
  |    77   0.100000E+01   0.000000E+00   C
  |    78   0.100000E+01   0.000000E+00   C
  |    79   0.100000E+01   0.000000E+00   C
  |    80   0.100000E+01   0.000000E+00   C
  |    81   0.100000E+01   0.000000E+00   C
  |    82   0.100000E+01   0.000000E+00   C
  |    83   0.100000E+01   0.000000E+00   C
  |    84   0.100000E+01   0.000000E+00   C
  |    85   0.100000E+01   0.000000E+00   C
  |    86   0.100000E+01   0.000000E+00   C
  |    87   0.100000E+01   0.000000E+00   C
  |    88   0.100000E+01   0.000000E+00   C
  |    89   0.100000E+01   0.000000E+00   H
  |    90   0.100000E+01   0.000000E+00   H
  |    91   0.100000E+01   0.000000E+00   C
  |    92   0.100000E+01   0.000000E+00   C

 
  Finished reading input file 'geometry.in'.
 

 
  Consistency checks for stacksize environment parameter are next.
 
  | Maximum stacksize for task 0: unlimited
  | Maximum stacksize for task 1: unlimited
  | Maximum stacksize for task 2: unlimited
  | Maximum stacksize for task 3: unlimited
  | Maximum stacksize for task 4: unlimited
  | Maximum stacksize for task 5: unlimited
  | Maximum stacksize for task 6: unlimited
  | Maximum stacksize for task 7: unlimited
  | Maximum stacksize for task 8: unlimited
  | Maximum stacksize for task 9: unlimited
  | Maximum stacksize for task 10: unlimited
  | Maximum stacksize for task 11: unlimited
  | Maximum stacksize for task 12: unlimited
  | Maximum stacksize for task 13: unlimited
  | Maximum stacksize for task 14: unlimited
  | Maximum stacksize for task 15: unlimited
  | Maximum stacksize for task 16: unlimited
  | Maximum stacksize for task 17: unlimited
  | Maximum stacksize for task 18: unlimited
  | Maximum stacksize for task 19: unlimited
  | Maximum stacksize for task 20: unlimited
  | Maximum stacksize for task 21: unlimited
  | Maximum stacksize for task 22: unlimited
  | Maximum stacksize for task 23: unlimited
  | Maximum stacksize for task 24: unlimited
  | Maximum stacksize for task 25: unlimited
  | Maximum stacksize for task 26: unlimited
  | Maximum stacksize for task 27: unlimited
  | Maximum stacksize for task 28: unlimited
  | Maximum stacksize for task 29: unlimited
  | Maximum stacksize for task 30: unlimited
  | Maximum stacksize for task 31: unlimited
  | Maximum stacksize for task 32: unlimited
  | Maximum stacksize for task 33: unlimited
  | Maximum stacksize for task 34: unlimited
  | Maximum stacksize for task 35: unlimited
  | Maximum stacksize for task 36: unlimited
  | Maximum stacksize for task 37: unlimited
  | Maximum stacksize for task 38: unlimited
  | Maximum stacksize for task 39: unlimited
  | Maximum stacksize for task 40: unlimited
  | Maximum stacksize for task 41: unlimited
  | Maximum stacksize for task 42: unlimited
  | Maximum stacksize for task 43: unlimited
  | Maximum stacksize for task 44: unlimited
  | Maximum stacksize for task 45: unlimited
  | Maximum stacksize for task 46: unlimited
  | Maximum stacksize for task 47: unlimited
  | Maximum stacksize for task 48: unlimited
  | Maximum stacksize for task 49: unlimited
  | Maximum stacksize for task 50: unlimited
  | Maximum stacksize for task 51: unlimited
  | Maximum stacksize for task 52: unlimited
  | Maximum stacksize for task 53: unlimited
  | Maximum stacksize for task 54: unlimited
  | Maximum stacksize for task 55: unlimited
  | Current stacksize for task 0: unlimited
  | Current stacksize for task 1: unlimited
  | Current stacksize for task 2: unlimited
  | Current stacksize for task 3: unlimited
  | Current stacksize for task 4: unlimited
  | Current stacksize for task 5: unlimited
  | Current stacksize for task 6: unlimited
  | Current stacksize for task 7: unlimited
  | Current stacksize for task 8: unlimited
  | Current stacksize for task 9: unlimited
  | Current stacksize for task 10: unlimited
  | Current stacksize for task 11: unlimited
  | Current stacksize for task 12: unlimited
  | Current stacksize for task 13: unlimited
  | Current stacksize for task 14: unlimited
  | Current stacksize for task 15: unlimited
  | Current stacksize for task 16: unlimited
  | Current stacksize for task 17: unlimited
  | Current stacksize for task 18: unlimited
  | Current stacksize for task 19: unlimited
  | Current stacksize for task 20: unlimited
  | Current stacksize for task 21: unlimited
  | Current stacksize for task 22: unlimited
  | Current stacksize for task 23: unlimited
  | Current stacksize for task 24: unlimited
  | Current stacksize for task 25: unlimited
  | Current stacksize for task 26: unlimited
  | Current stacksize for task 27: unlimited
  | Current stacksize for task 28: unlimited
  | Current stacksize for task 29: unlimited
  | Current stacksize for task 30: unlimited
  | Current stacksize for task 31: unlimited
  | Current stacksize for task 32: unlimited
  | Current stacksize for task 33: unlimited
  | Current stacksize for task 34: unlimited
  | Current stacksize for task 35: unlimited
  | Current stacksize for task 36: unlimited
  | Current stacksize for task 37: unlimited
  | Current stacksize for task 38: unlimited
  | Current stacksize for task 39: unlimited
  | Current stacksize for task 40: unlimited
  | Current stacksize for task 41: unlimited
  | Current stacksize for task 42: unlimited
  | Current stacksize for task 43: unlimited
  | Current stacksize for task 44: unlimited
  | Current stacksize for task 45: unlimited
  | Current stacksize for task 46: unlimited
  | Current stacksize for task 47: unlimited
  | Current stacksize for task 48: unlimited
  | Current stacksize for task 49: unlimited
  | Current stacksize for task 50: unlimited
  | Current stacksize for task 51: unlimited
  | Current stacksize for task 52: unlimited
  | Current stacksize for task 53: unlimited
  | Current stacksize for task 54: unlimited
  | Current stacksize for task 55: unlimited
 
  Consistency checks for the contents of control.in are next.
 
  MPI_IN_PLACE appears to work with this MPI implementation.
  | Keeping use_mpi_in_place .true. (see manual).
  Target number of points in a grid batch is not set. Defaulting to  100
  Method for grid partitioning is not set. Defaulting to parallel hash+maxmin partitioning.
  Batch size limit is not set. Defaulting to    200
  By default, will store active basis functions for each batch.
  If in need of memory, prune_basis_once .false. can be used to disable this option.
  communication_type for Hartree potential was not specified.
  Defaulting to calc_hartree .
  Pulay mixer: Number of initial linear mixing iterations not set.
  Defaulting to    0 iterations.
  Work space size for distributed Hartree potential not set.
  Defaulting to   0.200000E+03 MB.
  Mixing parameter for spin density mixing has not been set.
  Using charge_mix_param as default:     0.5000.
  Algorithm-dependent basis array size parameters:
  | n_max_pulay                         :       10
  Presetting      1001 iterations before the initial mixing cycle
  is restarted anyway using the sc_init_iter criterion / keyword.
  Presetting a factor      1.000 between actual scf density residual
  and density convergence criterion sc_accuracy_rho below which sc_init_iter
  takes no effect.
  Calculation of forces was not defined in control.in. No forces will be calculated.
  Geometry relaxation not requested: no relaxation will be performed.
  No accuracy limit for integral partition fn. given. Defaulting to  0.1000E-14.
  No threshold value for u(r) in integrations given. Defaulting to  0.1000E-05.
  No accuracy for occupation numbers given. Defaulting to  0.1000E-12.
  No threshold value for occupation numbers given. Defaulting to  0.0000E+00.
  No accuracy for fermi level given. Defaulting to  0.1000E-19.
  Maximum # of iterations to find E_F not set. Defaulting to  200.
  Preferred method for the eigenvalue solver ('KS_method') not specified in 'control.in'.
  Calling BLACS routine to test compilation state
  Since ScaLAPACK support is enabled, defaulting to ELPA (via ELSI).
  Will not use alltoall communication since running on < 1024 CPUs.
  Threshold for basis singularities not set.
  Default threshold for basis singularities:  0.1000E-04
  partition_type (choice of integration weights) for integrals was not specified.
  | Using a version of the partition function of Stratmann and coworkers ('stratmann_sparse').
  | At each grid point, the set of atoms used to build the partition table is smoothly restricted to
  | only those atoms whose free-atom density would be non-zero at that grid point.
  Partitioning for Hartree potential was not defined. Using partition_type for integrals.
  | Adjusted default value of keyword multip_moments_threshold to:       0.10000000E-11
  | This value may affect high angular momentum components of the Hartree potential in periodic systems.
  No q(lm)/r^(l+1) cutoff set for long-range Hartree potential.
  | Using default value of  0.100000E-09 .
  | Verify using the multipole_threshold keyword.
  Defaulting to new monopole extrapolation.
  Density update method: automatic selection selected.
  Charge integration errors on the 3D integration grid will be compensated
  by explicit normalization and distribution of residual charges.
  Use the "compensate_multipole_errors" flag to change this behaviour.
  Number of empty states calculated from fragments:  222
  Set 'collect_eigenvectors' to be '.true.' for use_density_matrix .false.
  Set 'collect_eigenvectors' to be '.true.' for fo_dft.
 
  Consistency checks for the contents of geometry.in are next.
 
 * Warning: Initial charge and total charge of the system are inconsistent.
 * Selected charge in control.in:     1.0000* Sum of initial charges in geometry.in:     0.0000
  Structure-dependent array size parameters: 
  | Number of distinct atom types in initial rho :        2
  | Maximum number of distinct radial functions  :        9
  | Maximum number of basis functions            :      964
  | Number of Kohn-Sham states (occupied + empty):      408
------------------------------------------------------------

------------------------------------------------------------
          Preparing all fixed parts of the calculation.
------------------------------------------------------------
  Determining machine precision:
    2.225073858507201E-308
  Setting up grids for atomic and cluster calculations.

  Creating wave function, potential, and density for free atoms.
  Runtime choices for atomic solver:
  | atomic solver xc        : BLYP
  | compute density gradient: 1
  | compute kinetic density : F

  Species: H

  List of occupied orbitals and eigenvalues:
    n    l              occ      energy [Ha]    energy [eV]
    1    0           1.0000        -0.238990        -6.5032


  Species: C

  List of occupied orbitals and eigenvalues:
    n    l              occ      energy [Ha]    energy [eV]
    1    0           2.0000       -10.067089      -273.9394
    2    0           2.0000        -0.497842       -13.5470
    2    1           2.0000        -0.189944        -5.1687

  Spin-polarized or charged system:
  Charge density initialized according to selected moments and charges.

  Creating spin-polarized density from free atoms.

  Species: H
  Charge:   0.000000
  Moment:   1.000000

  List of occupied orbitals and eigenvalues:
    n    l      energy [Ha]    energy [eV]    occupation
  Spin-up
    1    0        -0.271622        -7.3912     1.00000000
  Spin-down
    1    0         0.010752         0.2926     0.00000000


  Species: C
  Charge:   0.000000
  Moment:   1.000000

  List of occupied orbitals and eigenvalues:
    n    l      energy [Ha]    energy [eV]    occupation
  Spin-up
    1    0       -10.052093      -273.5314     1.00000000
    2    0        -0.512942       -13.9579     1.00000000
    2    1        -0.202181        -5.5016     1.50000000
  Spin-down
    1    0       -10.033506      -273.0256     1.00000000
    2    0        -0.456462       -12.4210     1.00000000
    2    1        -0.151185        -4.1140     0.50000000


  Adding cutoff potential to free-atom effective potential.
  Creating fixed part of basis set: Ionic, confined, hydrogenic.
 
  H                    hydrogenic:
 
  List of hydrogenic basis orbitals: 
    n    l      effective z      eigenvalue [eV]  inner max. [A]     outer max. [A]     outer radius [A]   
    2    0         2.100000       -14.9728           0.193243           1.317208           4.583499
    2    1         3.500000       -41.6669           0.602369           0.602369           3.723403
 
 
  C                    hydrogenic:
 
  List of hydrogenic basis orbitals: 
    n    l      effective z      eigenvalue [eV]  inner max. [A]     outer max. [A]     outer radius [A]   
    2    1         1.700000        -9.7616           1.230570           1.230570           4.607917
    3    2         6.000000       -54.4224           0.792453           0.792453           3.883070
    2    0         4.900000       -81.6679           0.082559           0.562749           3.078220
 
  Creating atomic-like basis functions for current effective potential.

  Species H                   :

  List of atomic basis orbitals and eigenvalues:
    n    l      energy [Ha]    energy [eV]    outer radius [A]
    1    0        -0.238990        -6.5032       4.527807


  Species C                   :

  List of atomic basis orbitals and eigenvalues:
    n    l      energy [Ha]    energy [eV]    outer radius [A]
    1    0       -10.067089      -273.9394       1.934409
    2    0        -0.497842       -13.5470       4.496620
    2    1        -0.189944        -5.1687       4.551928

  Assembling full basis from fixed parts.
  | Species H :   atomic orbital   1 s accepted.
  | Species H :    hydro orbital   2 s accepted.
  | Species H :    hydro orbital   2 p accepted.
  | Species C :   atomic orbital   1 s accepted.
  | Species C :    hydro orbital   2 s accepted.
  | Species C :   atomic orbital   2 s accepted.
  | Species C :   atomic orbital   2 p accepted.
  | Species C :    hydro orbital   2 p accepted.
  | Species C :    hydro orbital   3 d accepted.
 
  Basis size parameters after reduction:
  | Total number of radial functions:        9
  | Total number of basis functions :      964
 
  Per-task memory consumption for arrays in subroutine allocate_ext:
  |           2.230576MB.
  Testing on-site integration grid accuracy.
  |  Species  Function  <phi|h_atom|phi> (log., in eV)  <phi|h_atom|phi> (rad., in eV)
           1        1                 -6.5044527913                 -6.5032312304
           1        2                 13.5128264660                 13.5186953162
           1        3                 25.3317713414                 25.3319138181
           2        4               -273.9394205892               -273.9393868748
           2        5                -10.6145279052                -10.6144887969
           2        6                 17.1727568254                 17.1688026287
           2        7                 -5.1704957803                 -5.1720974370
           2        8                  8.7521213222                  8.7293892811
           2        9                 27.7044268360                 27.7044408576

  Preparing densities etc. for the partition functions (integrals / Hartree potential).

  Preparations completed.
  max(cpu_time)          :      0.180 s.
  Wall clock time (cpu1) :      0.340 s.
------------------------------------------------------------

  Initializing index lists of integration centers etc. from given atomic structure:
  | Number of centers in hartree potential         :        92
  | Number of centers in hartree multipole         :        92
  | Number of centers in electron density summation:        92
  | Number of centers in basis integrals           :        92
  | Number of centers in integrals                 :        92
  | Number of centers in hamiltonian               :        92

------------------------------------------------------------
          Begin self-consistency loop: Initialization.

          Date     :  20241106, Time     :  123957.240
------------------------------------------------------------
  * Using 56 tasks for Scalapack Eigenvalue solver.
  Detailed listing of tasks and assigned k-points:
  (for non-periodic systems, the "k-point" denotes an internal label only)
   Task     0 k-point     1 on f001
   Task     1 k-point     1 on f001
   Task     2 k-point     1 on f001
   Task     3 k-point     1 on f001
   Task     4 k-point     1 on f001
   Task     5 k-point     1 on f001
   Task     6 k-point     1 on f001
   Task     7 k-point     1 on f001
   Task     8 k-point     1 on f001
   Task     9 k-point     1 on f001
   Task    10 k-point     1 on f001
   Task    11 k-point     1 on f001
   Task    12 k-point     1 on f001
   Task    13 k-point     1 on f001
   Task    14 k-point     1 on f001
   Task    15 k-point     1 on f001
   Task    16 k-point     1 on f001
   Task    17 k-point     1 on f001
   Task    18 k-point     1 on f001
   Task    19 k-point     1 on f001
   Task    20 k-point     1 on f001
   Task    21 k-point     1 on f001
   Task    22 k-point     1 on f001
   Task    23 k-point     1 on f001
   Task    24 k-point     1 on f001
   Task    25 k-point     1 on f001
   Task    26 k-point     1 on f001
   Task    27 k-point     1 on f001
   Task    28 k-point     1 on f001
   Task    29 k-point     1 on f001
   Task    30 k-point     1 on f001
   Task    31 k-point     1 on f001
   Task    32 k-point     1 on f001
   Task    33 k-point     1 on f001
   Task    34 k-point     1 on f001
   Task    35 k-point     1 on f001
   Task    36 k-point     1 on f001
   Task    37 k-point     1 on f001
   Task    38 k-point     1 on f001
   Task    39 k-point     1 on f001
   Task    40 k-point     1 on f001
   Task    41 k-point     1 on f001
   Task    42 k-point     1 on f001
   Task    43 k-point     1 on f001
   Task    44 k-point     1 on f001
   Task    45 k-point     1 on f001
   Task    46 k-point     1 on f001
   Task    47 k-point     1 on f001
   Task    48 k-point     1 on f001
   Task    49 k-point     1 on f001
   Task    50 k-point     1 on f001
   Task    51 k-point     1 on f001
   Task    52 k-point     1 on f001
   Task    53 k-point     1 on f001
   Task    54 k-point     1 on f001
   Task    55 k-point     1 on f001
  Tasks:    56 split into      8 X      7 BLACS grid
  Calculating block size based on n_basis =          964  max_nprow =            8  max_npcol =            7
  ScaLAPACK block size set to:           16
  Allocating        0.141 MB for ovlp
  Allocating        0.281 MB for ham
  Allocating        0.281 MB for eigenvec
  Required Scalapack workspace - INTEGER:            1  REAL:             1
  Partitioning the integration grid into batches with parallel hashing+maxmin method.
  | Number of batches:     3917
  | Maximal batch size:     200
  | Minimal batch size:       7
  | Average batch size:     125.856
  | Standard deviation of batch sizes:      42.769

  Integration load balanced across    56 MPI tasks.
  Work distribution over tasks is as follows:
  Task     0 has       8816 integration points.
  Task     1 has       8854 integration points.
  Task     2 has       8801 integration points.
  Task     3 has       8821 integration points.
  Task     4 has       8849 integration points.
  Task     5 has       8826 integration points.
  Task     6 has       8846 integration points.
  Task     7 has       8790 integration points.
  Task     8 has       8818 integration points.
  Task     9 has       8804 integration points.
  Task    10 has       8812 integration points.
  Task    11 has       8868 integration points.
  Task    12 has       8804 integration points.
  Task    13 has       8854 integration points.
  Task    14 has       8846 integration points.
  Task    15 has       8793 integration points.
  Task    16 has       8782 integration points.
  Task    17 has       8722 integration points.
  Task    18 has       8816 integration points.
  Task    19 has       8837 integration points.
  Task    20 has       8808 integration points.
  Task    21 has       8816 integration points.
  Task    22 has       8845 integration points.
  Task    23 has       8808 integration points.
  Task    24 has       8853 integration points.
  Task    25 has       8814 integration points.
  Task    26 has       8873 integration points.
  Task    27 has       8830 integration points.
  Task    28 has       8848 integration points.
  Task    29 has       8713 integration points.
  Task    30 has       8705 integration points.
  Task    31 has       8813 integration points.
  Task    32 has       8709 integration points.
  Task    33 has       8813 integration points.
  Task    34 has       8790 integration points.
  Task    35 has       8848 integration points.
  Task    36 has       8800 integration points.
  Task    37 has       8809 integration points.
  Task    38 has       8839 integration points.
  Task    39 has       8826 integration points.
  Task    40 has       8830 integration points.
  Task    41 has       8817 integration points.
  Task    42 has       8795 integration points.
  Task    43 has       8705 integration points.
  Task    44 has       8707 integration points.
  Task    45 has       8706 integration points.
  Task    46 has       8708 integration points.
  Task    47 has       8800 integration points.
  Task    48 has       8714 integration points.
  Task    49 has       8805 integration points.
  Task    50 has       8707 integration points.
  Task    51 has       8842 integration points.
  Task    52 has       8815 integration points.
  Task    53 has       8836 integration points.
  Task    54 has       8858 integration points.
  Task    55 has       8812 integration points.
  Initializing partition tables, free-atom densities, potentials, etc. across the integration grid (initialize_grid_storage).
  | initialize_grid_storage: Actual outermost partition radius vs. multipole_radius_free
  | (-- VB: in principle, multipole_radius_free should be larger, hence this output)
  | Species        1: Confinement radius =              4.999999999999999 AA, multipole_radius_free =              5.054417573612229 AA.
  | Species        1: outer_partition_radius set to              5.054417573612229 AA .
  | Species        2: Confinement radius =              4.999999999999999 AA, multipole_radius_free =              5.019602836301480 AA.
  | Species        2: outer_partition_radius set to              5.019602836301480 AA .
  | The sparse table of interatomic distances needs         61.14 kbyte instead of        67.71 kbyte of memory.
  | Net number of integration points:   492976
  | of which are non-zero points    :   417350
  Renormalizing the initial density to the exact electron count on the 3D integration grid.
  | Initial density: Formal number of electrons (from input files) :     372.0000000000
  | Integrated number of electrons on 3D grid     :     372.0020123014
  | Charge integration error                      :       0.0020123014
  | Normalization factor for density and gradient :       0.9999945906
  Renormalizing the free-atom superposition density to the exact electron count on the 3D integration grid.
  | Formal number of electrons (from input files) :     371.0000000000
  | Integrated number of electrons on 3D grid     :     372.0020205543
  | Charge integration error                      :       0.0020205543
  | Normalization factor for density and gradient :       0.9999945684
  Obtaining max. number of non-zero basis functions in each batch (get_n_compute_maxes).
  | Maximal number of non-zero basis functions:      421 in task     0
  | Maximal number of non-zero basis functions:      442 in task     1
  | Maximal number of non-zero basis functions:      414 in task     2
  | Maximal number of non-zero basis functions:      436 in task     3
  | Maximal number of non-zero basis functions:      433 in task     4
  | Maximal number of non-zero basis functions:      410 in task     5
  | Maximal number of non-zero basis functions:      401 in task     6
  | Maximal number of non-zero basis functions:      417 in task     7
  | Maximal number of non-zero basis functions:      420 in task     8
  | Maximal number of non-zero basis functions:      414 in task     9
  | Maximal number of non-zero basis functions:      431 in task    10
  | Maximal number of non-zero basis functions:      404 in task    11
  | Maximal number of non-zero basis functions:      421 in task    12
  | Maximal number of non-zero basis functions:      426 in task    13
  | Maximal number of non-zero basis functions:      420 in task    14
  | Maximal number of non-zero basis functions:      416 in task    15
  | Maximal number of non-zero basis functions:      421 in task    16
  | Maximal number of non-zero basis functions:      415 in task    17
  | Maximal number of non-zero basis functions:      426 in task    18
  | Maximal number of non-zero basis functions:      404 in task    19
  | Maximal number of non-zero basis functions:      420 in task    20
  | Maximal number of non-zero basis functions:      413 in task    21
  | Maximal number of non-zero basis functions:      413 in task    22
  | Maximal number of non-zero basis functions:      416 in task    23
  | Maximal number of non-zero basis functions:      398 in task    24
  | Maximal number of non-zero basis functions:      405 in task    25
  | Maximal number of non-zero basis functions:      362 in task    26
  | Maximal number of non-zero basis functions:      437 in task    27
  | Maximal number of non-zero basis functions:      425 in task    28
  | Maximal number of non-zero basis functions:      405 in task    29
  | Maximal number of non-zero basis functions:      437 in task    30
  | Maximal number of non-zero basis functions:      431 in task    31
  | Maximal number of non-zero basis functions:      442 in task    32
  | Maximal number of non-zero basis functions:      432 in task    33
  | Maximal number of non-zero basis functions:      421 in task    34
  | Maximal number of non-zero basis functions:      430 in task    35
  | Maximal number of non-zero basis functions:      423 in task    36
  | Maximal number of non-zero basis functions:      428 in task    37
  | Maximal number of non-zero basis functions:      390 in task    38
  | Maximal number of non-zero basis functions:      418 in task    39
  | Maximal number of non-zero basis functions:      398 in task    40
  | Maximal number of non-zero basis functions:      412 in task    41
  | Maximal number of non-zero basis functions:      417 in task    42
  | Maximal number of non-zero basis functions:      407 in task    43
  | Maximal number of non-zero basis functions:      399 in task    44
  | Maximal number of non-zero basis functions:      429 in task    45
  | Maximal number of non-zero basis functions:      430 in task    46
  | Maximal number of non-zero basis functions:      398 in task    47
  | Maximal number of non-zero basis functions:      421 in task    48
  | Maximal number of non-zero basis functions:      404 in task    49
  | Maximal number of non-zero basis functions:      375 in task    50
  | Maximal number of non-zero basis functions:      399 in task    51
  | Maximal number of non-zero basis functions:      410 in task    52
  | Maximal number of non-zero basis functions:      389 in task    53
  | Maximal number of non-zero basis functions:      417 in task    54
  | Maximal number of non-zero basis functions:      433 in task    55
  Selecting the method for density update.
  split updates selected: force will be updated via density matrix and electron density via Kohn Sham orbitals.
  Scalapack and split updates requested:
  Switching to packed matrix format "index" by default.
  Hamiltonian matrix size:
  | Size of matrix non-packed:                465130
  | Size of matrix packed:          246802
  Allocating        6.001 MB for KS_eigenvector
  Integrating Hamiltonian matrix: batch-based integration.
  Time summed over all CPUs for integration: real work       49.835 s, elapsed       87.754 s => Consider using load balancing!
  Integrating overlap matrix.
  Time summed over all CPUs for integration: real work        7.583 s, elapsed       13.115 s
  Decreasing sparse matrix size:
  | Tolerance:  0.1000E-12
  Hamiltonian matrix
  | Array has   237580 nonzero elements out of   246802 elements
  | Sparsity factor is 0.037
  Overlap matrix
  | Array has   232016 nonzero elements out of   246802 elements
  | Sparsity factor is 0.060
  New size of hamiltonian matrix:      237581
  Not deallocating overlap matrix.

  Reading cluster restart information from file restart.combined
  Writing Kohn-Sham eigenvalues.

  Spin-up eigenvalues:

  State    Occupation    Eigenvalue [Ha]    Eigenvalue [eV]
      1       1.00000         -10.059044         -273.72052
      2       1.00000         -10.058268         -273.69941
      3       1.00000         -10.057763         -273.68566
      4       1.00000         -10.052482         -273.54194
      5       1.00000         -10.050732         -273.49434
      6       1.00000         -10.050639         -273.49182
      7       1.00000         -10.050055         -273.47592
      8       1.00000         -10.045981         -273.36504
      9       1.00000         -10.045565         -273.35373
     10       1.00000         -10.044595         -273.32734
     11       1.00000         -10.043478         -273.29693
     12       1.00000         -10.043308         -273.29232
     13       1.00000         -10.042305         -273.26502
     14       1.00000         -10.041473         -273.24239
     15       1.00000         -10.040272         -273.20970
     16       1.00000         -10.040071         -273.20424
     17       1.00000         -10.037168         -273.12523
     18       1.00000         -10.036488         -273.10673
     19       1.00000         -10.036401         -273.10438
     20       1.00000         -10.033872         -273.03554
     21       1.00000         -10.033822         -273.03420
     22       1.00000         -10.031855         -272.98067
     23       1.00000         -10.031706         -272.97660
     24       1.00000         -10.020919         -272.68309
     25       1.00000         -10.020155         -272.66229
     26       1.00000         -10.019260         -272.63792
     27       1.00000         -10.014991         -272.52177
     28       1.00000         -10.014688         -272.51352
     29       1.00000          -9.931792         -270.25781
     30       1.00000          -9.931407         -270.24733
     31       1.00000          -9.931092         -270.23877
     32       1.00000          -9.931077         -270.23834
     33       1.00000          -9.930927         -270.23427
     34       1.00000          -9.928584         -270.17052
     35       1.00000          -9.927396         -270.13819
     36       1.00000          -9.925764         -270.09378
     37       1.00000          -9.924953         -270.07171
     38       1.00000          -9.924340         -270.05502
     39       1.00000          -9.924210         -270.05148
     40       1.00000          -9.923946         -270.04431
     41       1.00000          -9.923517         -270.03264
     42       1.00000          -9.921195         -269.96944
     43       1.00000          -9.917913         -269.88014
     44       1.00000          -9.917153         -269.85946
     45       1.00000          -9.916066         -269.82989
     46       1.00000          -9.915696         -269.81981
     47       1.00000          -9.914769         -269.79460
     48       1.00000          -9.914650         -269.79135
     49       1.00000          -9.914213         -269.77946
     50       1.00000          -9.914180         -269.77857
     51       1.00000          -9.914101         -269.77641
     52       1.00000          -9.913671         -269.76472
     53       1.00000          -9.913451         -269.75873
     54       1.00000          -9.910927         -269.69005
     55       1.00000          -9.909755         -269.65816
     56       1.00000          -9.900838         -269.41552
     57       1.00000          -0.941995          -25.63300
     58       1.00000          -0.917925          -24.97800
     59       1.00000          -0.903959          -24.59796
     60       1.00000          -0.879868          -23.94242
     61       1.00000          -0.874441          -23.79476
     62       1.00000          -0.854010          -23.23880
     63       1.00000          -0.823745          -22.41524
     64       1.00000          -0.815242          -22.18387
     65       1.00000          -0.813717          -22.14238
     66       1.00000          -0.795435          -21.64488
     67       1.00000          -0.794309          -21.61426
     68       1.00000          -0.792210          -21.55714
     69       1.00000          -0.783860          -21.32992
     70       1.00000          -0.783014          -21.30689
     71       1.00000          -0.774552          -21.07664
     72       1.00000          -0.767344          -20.88049
     73       1.00000          -0.760736          -20.70068
     74       1.00000          -0.759353          -20.66306
     75       1.00000          -0.757092          -20.60153
     76       1.00000          -0.732551          -19.93373
     77       1.00000          -0.713410          -19.41289
     78       1.00000          -0.705289          -19.19189
     79       1.00000          -0.691370          -18.81313
     80       1.00000          -0.690671          -18.79411
     81       1.00000          -0.681259          -18.53800
     82       1.00000          -0.680659          -18.52168
     83       1.00000          -0.678369          -18.45935
     84       1.00000          -0.675045          -18.36891
     85       1.00000          -0.669181          -18.20933
     86       1.00000          -0.666124          -18.12617
     87       1.00000          -0.658781          -17.92634
     88       1.00000          -0.656988          -17.87755
     89       1.00000          -0.642298          -17.47782
     90       1.00000          -0.633626          -17.24184
     91       1.00000          -0.632624          -17.21458
     92       1.00000          -0.624656          -16.99774
     93       1.00000          -0.613652          -16.69833
     94       1.00000          -0.604217          -16.44159
     95       1.00000          -0.594167          -16.16811
     96       1.00000          -0.583522          -15.87845
     97       1.00000          -0.578623          -15.74514
     98       1.00000          -0.574130          -15.62287
     99       1.00000          -0.573001          -15.59215
    100       1.00000          -0.566741          -15.42182
    101       1.00000          -0.565558          -15.38961
    102       1.00000          -0.559723          -15.23085
    103       1.00000          -0.550347          -14.97571
    104       1.00000          -0.542463          -14.76117
    105       1.00000          -0.540585          -14.71005
    106       1.00000          -0.534685          -14.54952
    107       1.00000          -0.533424          -14.51522
    108       1.00000          -0.529123          -14.39818
    109       1.00000          -0.522323          -14.21314
    110       1.00000          -0.519866          -14.14628
    111       1.00000          -0.508122          -13.82670
    112       1.00000          -0.504923          -13.73966
    113       1.00000          -0.499015          -13.57890
    114       1.00000          -0.497776          -13.54518
    115       1.00000          -0.495294          -13.47763
    116       1.00000          -0.495056          -13.47116
    117       1.00000          -0.490966          -13.35986
    118       1.00000          -0.487556          -13.26708
    119       1.00000          -0.487123          -13.25530
    120       1.00000          -0.482984          -13.14268
    121       1.00000          -0.478557          -13.02221
    122       1.00000          -0.470928          -12.81461
    123       1.00000          -0.470691          -12.80817
    124       1.00000          -0.469738          -12.78223
    125       1.00000          -0.467837          -12.73050
    126       1.00000          -0.467672          -12.72600
    127       1.00000          -0.466567          -12.69594
    128       1.00000          -0.454413          -12.36521
    129       1.00000          -0.454009          -12.35423
    130       1.00000          -0.453408          -12.33785
    131       1.00000          -0.451754          -12.29285
    132       1.00000          -0.444079          -12.08400
    133       1.00000          -0.435558          -11.85214
    134       1.00000          -0.434804          -11.83161
    135       1.00000          -0.430184          -11.70591
    136       1.00000          -0.424607          -11.55415
    137       1.00000          -0.423524          -11.52468
    138       1.00000          -0.422171          -11.48785
    139       1.00000          -0.417140          -11.35095
    140       1.00000          -0.414205          -11.27109
    141       1.00000          -0.413867          -11.26189
    142       1.00000          -0.409005          -11.12960
    143       1.00000          -0.407513          -11.08898
    144       1.00000          -0.400524          -10.89880
    145       1.00000          -0.394218          -10.72721
    146       1.00000          -0.394010          -10.72157
    147       1.00000          -0.389177          -10.59003
    148       1.00000          -0.388280          -10.56563
    149       1.00000          -0.384367          -10.45915
    150       1.00000          -0.381996          -10.39463
    151       1.00000          -0.379057          -10.31466
    152       1.00000          -0.371493          -10.10885
    153       1.00000          -0.371238          -10.10190
    154       1.00000          -0.369439          -10.05294
    155       1.00000          -0.366825           -9.98181
    156       1.00000          -0.363425           -9.88929
    157       1.00000          -0.361633           -9.84055
    158       1.00000          -0.352023           -9.57903
    159       1.00000          -0.347297           -9.45043
    160       1.00000          -0.346450           -9.42737
    161       1.00000          -0.344399           -9.37157
    162       1.00000          -0.343140           -9.33731
    163       1.00000          -0.337304           -9.17852
    164       1.00000          -0.334218           -9.09453
    165       1.00000          -0.331035           -9.00792
    166       1.00000          -0.327520           -8.91226
    167       1.00000          -0.325148           -8.84772
    168       1.00000          -0.316392           -8.60946
    169       1.00000          -0.315179           -8.57645
    170       1.00000          -0.310318           -8.44420
    171       1.00000          -0.309305           -8.41662
    172       1.00000          -0.307070           -8.35579
    173       1.00000          -0.301481           -8.20372
    174       1.00000          -0.301355           -8.20029
    175       1.00000          -0.298924           -8.13414
    176       1.00000          -0.289291           -7.87200
    177       1.00000          -0.283849           -7.72393
    178       1.00000          -0.280442           -7.63123
    179       1.00000          -0.253505           -6.89821
    180       1.00000          -0.244446           -6.65172
    181       0.00000          -0.243364           -6.62227
    182       1.00000          -0.232507           -6.32683
    183       1.00000          -0.229504           -6.24512
    184       1.00000          -0.223680           -6.08665
    185       1.00000          -0.214259           -5.83027
    186       0.00000          -0.192302           -5.23281
    187       1.00000          -0.183337           -4.98885
    188       1.00000          -0.168524           -4.58578
    189       0.00000          -0.162643           -4.42574
    190       0.00000          -0.159468           -4.33935
    191       0.00000          -0.156440           -4.25696
    192       0.00000          -0.139868           -3.80601
    193       0.00000          -0.132635           -3.60917
    194       0.00000          -0.123362           -3.35685
    195       0.00000          -0.120955           -3.29134
    196       0.00000          -0.074302           -2.02186
    197       0.00000          -0.073192           -1.99166
    198       0.00000          -0.061729           -1.67973
    199       0.00000          -0.056484           -1.53701
    200       0.00000          -0.052095           -1.41758
    201       0.00000          -0.050136           -1.36426
    202       0.00000          -0.047764           -1.29974
    203       0.00000          -0.045821           -1.24684
    204       0.00000          -0.041962           -1.14185
    205       0.00000          -0.041636           -1.13298
    206       0.00000          -0.040145           -1.09240
    207       0.00000          -0.030839           -0.83918
    208       0.00000          -0.027319           -0.74337
    209       0.00000          -0.022287           -0.60647
    210       0.00000          -0.019747           -0.53734
    211       0.00000          -0.016142           -0.43925
    212       0.00000          -0.009405           -0.25593
    213       0.00000          -0.005855           -0.15932
    214       0.00000          -0.004997           -0.13598
    215       0.00000           0.002773            0.07547
    216       0.00000           0.016982            0.46209
    217       0.00000           0.026798            0.72920
    218       0.00000           0.032247            0.87748
    219       0.00000           0.037905            1.03144
    220       0.00000           0.039032            1.06210
    221       0.00000           0.044127            1.20076
    222       0.00000           0.045842            1.24742
    223       0.00000           0.045879            1.24844
    224       0.00000           0.047010            1.27920
    225       0.00000           0.052210            1.42071
    226       0.00000           0.054888            1.49359
    227       0.00000           0.055846            1.51964
    228       0.00000           0.062491            1.70048
    229       0.00000           0.063448            1.72651
    230       0.00000           0.063616            1.73109
    231       0.00000           0.067381            1.83353
    232       0.00000           0.068436            1.86225
    233       0.00000           0.079166            2.15423
    234       0.00000           0.081087            2.20648
    235       0.00000           0.081592            2.22023
    236       0.00000           0.085208            2.31862
    237       0.00000           0.087023            2.36801
    238       0.00000           0.091619            2.49308
    239       0.00000           0.094236            2.56428
    240       0.00000           0.099725            2.71365
    241       0.00000           0.104200            2.83541
    242       0.00000           0.108265            2.94605
[...]
    247       0.00000           0.126048            3.42994
    248       0.00000           0.128066            3.48485
    249       0.00000           0.130420            3.54890
    250       0.00000           0.133506            3.63288
    251       0.00000           0.136298            3.70885
    252       0.00000           0.140360            3.81940
    253       0.00000           0.144997            3.94556
    254       0.00000           0.148599            4.04359
    255       0.00000           0.149955            4.08047
    256       0.00000           0.152156            4.14039
    257       0.00000           0.154981            4.21724
    258       0.00000           0.157974            4.29869
    259       0.00000           0.160896            4.37821
    260       0.00000           0.165495            4.50335
    261       0.00000           0.167625            4.56130
    262       0.00000           0.168383            4.58194
    263       0.00000           0.169213            4.60451
    264       0.00000           0.171019            4.65366
    265       0.00000           0.174298            4.74290
    266       0.00000           0.179012            4.87115
    267       0.00000           0.181354            4.93488
    268       0.00000           0.186877            5.08518
    269       0.00000           0.187111            5.09155
    270       0.00000           0.193266            5.25904
    271       0.00000           0.194368            5.28903
    272       0.00000           0.199097            5.41769
    273       0.00000           0.200821            5.46462
    274       0.00000           0.201307            5.47784
    275       0.00000           0.206085            5.60785
    276       0.00000           0.206557            5.62071
    277       0.00000           0.211203            5.74713
    278       0.00000           0.213071            5.79795
    279       0.00000           0.214919            5.84824
    280       0.00000           0.217509            5.91871
    281       0.00000           0.219676            5.97770
    282       0.00000           0.222946            6.06667
    283       0.00000           0.223271            6.07552
    284       0.00000           0.228782            6.22548
    285       0.00000           0.233096            6.34288
    286       0.00000           0.233408            6.35135
    287       0.00000           0.236092            6.42439
    288       0.00000           0.236569            6.43738
    289       0.00000           0.239530            6.51793
    290       0.00000           0.243702            6.63146
    291       0.00000           0.248432            6.76018
    292       0.00000           0.253754            6.90500
    293       0.00000           0.255249            6.94568
    294       0.00000           0.256701            6.98520
    295       0.00000           0.257677            7.01174
    296       0.00000           0.260129            7.07847
    297       0.00000           0.261961            7.12831
    298       0.00000           0.262726            7.14913
    299       0.00000           0.264285            7.19156
    300       0.00000           0.268531            7.30711
    301       0.00000           0.269059            7.32146
    302       0.00000           0.274067            7.45774
    303       0.00000           0.277805            7.55947
    304       0.00000           0.278646            7.58233
    305       0.00000           0.279970            7.61838
    306       0.00000           0.282101            7.67635
    307       0.00000           0.283910            7.72560
    308       0.00000           0.284617            7.74482
    309       0.00000           0.286953            7.80840
    310       0.00000           0.288923            7.86200
    311       0.00000           0.289060            7.86572
    312       0.00000           0.292361            7.95556
    313       0.00000           0.293923            7.99806
    314       0.00000           0.294179            8.00503
    315       0.00000           0.299095            8.13880
    316       0.00000           0.301163            8.19506
    317       0.00000           0.304065            8.27403
    318       0.00000           0.306677            8.34511
    319       0.00000           0.306877            8.35055
    320       0.00000           0.311821            8.48509
    321       0.00000           0.315394            8.58230
    322       0.00000           0.318756            8.67379
    323       0.00000           0.321164            8.73931
    324       0.00000           0.324855            8.83974
    325       0.00000           0.325954            8.86965
    326       0.00000           0.330382            8.99014
    327       0.00000           0.332514            9.04815
    328       0.00000           0.334848            9.11168
    329       0.00000           0.335156            9.12005
    330       0.00000           0.335865            9.13935
    331       0.00000           0.337391            9.18088
    332       0.00000           0.340196            9.25720
    333       0.00000           0.340720            9.27146
    334       0.00000           0.343492            9.34691
    335       0.00000           0.343567            9.34892
    336       0.00000           0.347797            9.46404
    337       0.00000           0.349103            9.49958
    338       0.00000           0.349771            9.51775
    339       0.00000           0.352840            9.60126
    340       0.00000           0.355923            9.68516
    341       0.00000           0.360858            9.81945
    342       0.00000           0.362563            9.86585
    343       0.00000           0.365254            9.93906
    344       0.00000           0.365567            9.94759
    345       0.00000           0.369132           10.04458
    346       0.00000           0.370975           10.09473
    347       0.00000           0.377674           10.27704
    348       0.00000           0.380844           10.36329
    349       0.00000           0.386968           10.52995
    350       0.00000           0.390070           10.61434
    351       0.00000           0.392130           10.67040
    352       0.00000           0.393534           10.70861
    353       0.00000           0.394111           10.72432
    354       0.00000           0.395616           10.76526
    355       0.00000           0.397441           10.81492
    356       0.00000           0.397949           10.82875
    357       0.00000           0.405350           11.03014
    358       0.00000           0.405377           11.03086
    359       0.00000           0.407166           11.07954
    360       0.00000           0.410883           11.18070
    361       0.00000           0.415111           11.29574
    362       0.00000           0.418941           11.39995
    363       0.00000           0.430694           11.71979
    364       0.00000           0.430986           11.72772
    365       0.00000           0.431003           11.72820
    366       0.00000           0.432592           11.77143
    367       0.00000           0.435263           11.84412
    368       0.00000           0.436722           11.88380
    369       0.00000           0.436791           11.88569
    370       0.00000           0.445543           12.12383
    371       0.00000           0.448968           12.21705
    372       0.00000           0.452766           12.32038
    373       0.00000           0.455084           12.38346
    374       0.00000           0.455965           12.40743
    375       0.00000           0.456734           12.42837
    376       0.00000           0.458620           12.47969
    377       0.00000           0.462719           12.59121
    378       0.00000           0.465064           12.65503
    379       0.00000           0.466199           12.68591
    380       0.00000           0.469486           12.77535
    381       0.00000           0.477319           12.98851
    382       0.00000           0.479137           13.03798
    383       0.00000           0.480389           13.07206
    384       0.00000           0.481465           13.10132
    385       0.00000           0.486242           13.23133
    386       0.00000           0.492535           13.40256
    387       0.00000           0.496942           13.52249
    388       0.00000           0.503304           13.69561
    389       0.00000           0.506350           13.77849
    390       0.00000           0.513098           13.96211
    391       0.00000           0.515784           14.03521
    392       0.00000           0.516680           14.05958
    393       0.00000           0.527994           14.36745
    394       0.00000           0.536233           14.59163
    395       0.00000           0.537153           14.61668
    396       0.00000           0.542689           14.76731
    397       0.00000           0.545541           14.84492
    398       0.00000           0.547132           14.88822
    399       0.00000           0.565537           15.38903
    400       0.00000           0.574883           15.64337
    401       0.00000           0.578163           15.73261
    402       0.00000           0.594279           16.17114
    403       0.00000           0.595044           16.19198
    404       0.00000           0.602398           16.39208
    405       0.00000           0.611419           16.63755
    406       0.00000           0.613737           16.70064
    407       0.00000           0.626181           17.03926
    408       0.00000           0.651344           17.72398

  Current spin moment of the entire structure :
  | N = N_up - N_down :    1.00
  | S                 :    0.50
  | J                 :    2.00

  Highest occupied state (VBM) at     -5.23280804 eV
  | Occupation number:      1.00000000
  | Spin channel:        1

  Lowest unoccupied state (CBM) at    -5.10311169 eV
  | Occupation number:      0.00000000
  | Spin channel:        2

  Overall HOMO-LUMO gap:      0.12969635 eV.

  Total energy components:
  | Sum of eigenvalues            :       -1249.59688485 Ha      -34003.26130360 eV
  | XC energy correction          :        -316.79471457 Ha       -8620.42278565 eV
  | XC potential correction       :         405.65855879 Ha       11038.53101907 eV
  | Free-atom electrostatic energy:        -942.09631185 Ha      -25635.74497781 eV
  | Hartree energy correction     :         -43.46773472 Ha       -1182.81724279 eV
  | Entropy correction            :          -0.00000000 Ha          -0.00000000 eV
  | ---------------------------
  | Total energy                  :       -2146.29708719 Ha      -58403.71529078 eV
  | Total energy, T -> 0          :       -2146.29708719 Ha      -58403.71529078 eV  <-- do not rely on this value for anything but (periodic) metals
  | Electronic free energy        :       -2146.29708719 Ha      -58403.71529078 eV

  Derived energy quantities:
  | Kinetic energy                :        2163.29233737 Ha       58866.17957814 eV
  | Electrostatic energy          :       -3992.79471000 Ha     -108649.47208326 eV
  | Energy correction for multipole
  | error in Hartree potential    :           0.75802917 Ha          20.62702309 eV
  | Sum of eigenvalues per atom                           :        -369.60066634 eV
  | Total energy (T->0) per atom                          :        -634.82299229 eV  <-- do not rely on this value for anything but (periodic) metals
  | Electronic free energy per atom                       :        -634.82299229 eV
  End evaluation of scaled ZORA corrections.
  | Time for scaled ZORA corrections            :        2.113 s           2.128 s
------------------------------------------------------------

  Energy and forces in a compact form:
  | Total energy uncorrected      :         -0.584037152907758E+05 eV
  | Total energy corrected        :         -0.584037152907758E+05 eV  <-- do not rely on this value for anything but (periodic) metals
  | Electronic free energy        :         -0.584037152907758E+05 eV

  ------------------------------------ 
  Start decomposition of the XC Energy 
  ------------------------------------ 
  X and C from original XC functional choice 
  Hartree-Fock Energy :          0.000000000 Ha              0.000000000 eV
  X Energy            :       -304.177911289 Ha          -8277.102100484 eV
  C Energy            :        -12.616803278 Ha           -343.320685167 eV
  XC Energy w/o HF    :       -316.794714567 Ha          -8620.422785652 eV
  Total XC Energy     :       -316.794714567 Ha          -8620.422785652 eV
  ------------------------------------ 
  LDA X and C from self-consistent density 
  X Energy LDA        :       -273.962596474 Ha          -7454.901551280 eV
  C Energy LDA        :        -23.925810764 Ha           -651.054436164 eV
  ------------------------------------ 
  End decomposition of the XC Energy 
  ------------------------------------ 

------------------------------------------------------------

  --------------------------------------------------------
  Calculation of electronic coupling values with FO-DFT
  --------------------------------------------------------
  Collecting information for output...
  H_ab for hole-transfer
  States evaluated for Fragment 1: 93  to   93
  States evaluated for Fragment 2: 93  to   93
  Please remember, these states are numbered according to the fragments,
  NOT the combined system!

  st1 -> st2:     h_ab
  -----------  ----------   ---
  093 -> 093:      -42.05   meV
  .         :      -1.545   mH

  | Total time to calculate H_ab                :       10.628 s          10.776 s
  -------------------------------------------------------------------------------
  | Time for Loewdin orthogonalisation          :        7.878 s           7.864 s
  | Time for H_ab submatrix evaluation          :        0.002 s           0.025 s
  -------------------------------------------------------------------------------
  Leaving FO-DFT routine.

------------------------------------------------------------------------------
  Final output of selected total energy values:

  The following output summarizes some interesting total energy values
  at the end of a run (AFTER all relaxation, molecular dynamics, etc.).

  | Total energy of the DFT / Hartree-Fock s.c.f. calculation      :         -58403.715290776 eV
  | Final zero-broadening corrected energy (caution - metals only) :         -58403.715290776 eV
  | For reference only, the value of 1 Hartree used in FHI-aims is :             27.211384500 eV

  Before relying on these values, please be sure to understand exactly which
  total energy value is referred to by a given number. Different objects may
  all carry the same name 'total energy'. Definitions:

  Total energy of the DFT / Hartree-Fock s.c.f. calculation:
  | Note that this energy does not include ANY quantities calculated after the
  | s.c.f. cycle, in particular not ANY RPA, MP2, etc. many-body perturbation terms.
  | Scalar relativistic effects have been included in the 'scaled ZORA' approximation.

  Final zero-broadening corrected energy:
  | For metallic systems only, a broadening of the occupation numbers at the Fermi
  | level can be extrapolated back to zero broadening by an electron-gas inspired
  | formula. For all systems that are not real metals, this value can be
  | meaningless and should be avoided.

------------------------------------------------------------------------------
  Methods described in the following list of references were used in this FHI-aims run.
  If you publish the results, please make sure to cite these reference if they apply.
  FHI-aims is an academic code, and for our developers (often, Ph.D. students
  and postdocs), scientific credit in the community is essential.
  Thank you for helping us!

  For any use of FHI-aims, please cite:

    Volker Blum, Ralf Gehrke, Felix Hanke, Paula Havu, Ville Havu,
    Xinguo Ren, Karsten Reuter, and Matthias Scheffler
    'Ab initio molecular simulations with numeric atom-centered orbitals'
    Computer Physics Communications 180, 2175-2196 (2009)
    http://doi.org/10.1016/j.cpc.2009.06.022


  For calculations of electronic coupling values using the
  Fragment molecular orbital scheme (FO-DFT), please cite:

    Christoph Schober, Karsten Reuter, Harald Oberhofer
    'Critical analysis of fragment-orbital DFT schemes
    for the calculation of electronic coupling values'
    Journal of Chemical Physics, 144, 054103 (2016).


  For the real-space grid partitioning and parallelization used in this calculation, please cite:

    Ville Havu, Volker Blum, Paula Havu, and Matthias Scheffler,
    'Efficient O(N) integration for all-electron electronic structure calculation'
    'using numerically tabulated basis functions'
    Journal of Computational Physics 228, 8367-8379 (2009).
    http://doi.org/10.1016/j.jcp.2009.08.008

  Of course, there are many other important community references, e.g., those cited in the
  above references. Our list is limited to references that describe implementations in the
  FHI-aims code. The reason is purely practical (length of this list) - please credit others as well.

------------------------------------------------------------
          Leaving FHI-aims.
          Date     :  20241106, Time     :  124026.622

          Computational steps:
          | Number of self-consistency cycles          :            0
          | Number of SCF (re)initializations          :            1

          Detailed time accounting                     :  max(cpu_time)    wall_clock(cpu1)
          | Total time                                  :       33.731 s          33.825 s
          | Preparation time                            :        0.180 s           0.340 s
          | Boundary condition initalization            :        0.000 s           0.025 s
          | Grid partitioning                           :        3.057 s           3.070 s
          | Preloading free-atom quantities on grid     :        0.698 s           0.724 s
          | Free-atom superposition energy              :        0.184 s           0.210 s
          | Total time for integrations                 :        4.829 s           4.867 s
          | Total time for solution of K.-S. equations  :        1.175 s           1.181 s
          | Total time for density update               :        1.153 s           1.166 s
          | Total time for mixing                       :        0.026 s           0.052 s
          | Total time for Hartree multipole update     :        2.704 s           2.730 s
          | Total time for Hartree multipole sum        :        0.781 s           0.807 s
          | Total time for total energy evaluation      :        0.000 s           0.015 s
          | Total time for scaled ZORA corrections      :        2.113 s           2.128 s
          | Total time for FO-DFT calculation           :       10.576 s          10.724 s

          Partial memory accounting:
          | Residual value for overall tracked memory usage across tasks:     0.000000 MB (should be 0.000000 MB)
          | Peak values for overall tracked memory usage:
          |   Minimum:       23.616 MB (on task 26 after allocating zora_vector2)
          |   Maximum:       26.262 MB (on task  1 after allocating zora_vector2)
          |   Average:       25.337 MB
          | Largest tracked array allocation:
          |   Minimum:        6.001 MB (KS_eigenvector on task  0)
          |   Maximum:        6.001 MB (KS_eigenvector on task  0)
          |   Average:        6.001 MB
          Note:  These values currently only include a subset of arrays which are explicitly tracked.
          The "true" memory usage will be greater.

          Have a nice day.
------------------------------------------------------------
