------------------------------------------------------------
          Invoking FHI-aims ...

          When using FHI-aims, please cite the following reference:

            Volker Blum, Ralf Gehrke, Felix Hanke, Paula Havu,
            Ville Havu, Xinguo Ren, Karsten Reuter, and Matthias Scheffler,
            'Ab Initio Molecular Simulations with Numeric Atom-Centered Orbitals',
            Computer Physics Communications 180, 2175-2196 (2009)

          In addition, many other developments in FHI-aims are likely important for
          your particular application. A partial list of references is given at the end of
          this file. Thank you for giving credit to the authors of these developments.

          For any questions about FHI-aims, please visit our slack channel at

            https://fhi-aims.slack.com

          and our main development and support site at

            https://aims-git.rz-berlin.mpg.de .

          The latter site, in particular, has a wiki to collect information, as well
          as an issue tracker to log discussions, suggest improvements, and report issues
          or bugs. https://aims-git.rz-berlin.mpg.de is also the main development site
          of the project and all new and updated code versions can be obtained there.
          Please send an email to aims-coordinators@fhi-berlin.mpg.de and we will add
          you to these sites. They are for you and everyone is welcome there.

------------------------------------------------------------



  Date     :  20241106, Time     :  130505.089
  Time zero on CPU 1             :   0.344493000000000E+00  s.
  Internal wall clock time zero  :           500130305.089  s.

  FHI-aims created a unique identifier for this run for later identification
  aims_uuid : 12CD0B9D-EE69-4E31-ACDE-0D78401A10D8

  Build configuration of the current instance of FHI-aims
  -------------------------------------------------------
  FHI-aims version      : 221103
  Commit number         : GITDIR-NOTFOUND
  CMake host system     : Linux-3.10.0-1160.59.1.el7.x86_64
  CMake version         : 3.17.5
  Fortran compiler      : /home/spack/spack/opt/spack/linux-centos7-broadwell/gcc-8.2.0/intel-oneapi-mpi-2021.13.1-tc3o22m5brhwlepjze7ymovtbug6ollk/mpi/2021.13/bin/mpiifort (Intel) version 20.2.8.20221119
  Fortran compiler flags: -O3 -ip -fp-model precise
  C compiler            : /home/spack/spack/opt/spack/linux-centos7-broadwell/gcc-8.2.0/intel-oneapi-compilers-2023.0.0-qdtyksft5ugoazragh7yusjezd4gp7hm/compiler/2023.0.0/linux/bin/intel64/icc (Intel) version 20.2.8.20221119
  C compiler flags      : -O3 -ip -fp-model precise -std=gnu99
  HIP compiler          :
  HIP compiler flags    :
  HIP GPU arch          :
  Using MPI
  Using ScaLAPACK
  Using LibXC
  Using i-PI
  Using RLSY
  Linking against: /home/spack/spack/opt/spack/linux-centos7-broadwell/gcc-8.2.0/intel-oneapi-mkl-2024.2.1-2ept5lpbp5bastej6jsrfm45y5ab2lpn/mkl/latest/lib/intel64/libmkl_intel_lp64.so
                   /home/spack/spack/opt/spack/linux-centos7-broadwell/gcc-8.2.0/intel-oneapi-mkl-2024.2.1-2ept5lpbp5bastej6jsrfm45y5ab2lpn/mkl/latest/lib/intel64/libmkl_sequential.so
                   /home/spack/spack/opt/spack/linux-centos7-broadwell/gcc-8.2.0/intel-oneapi-mkl-2024.2.1-2ept5lpbp5bastej6jsrfm45y5ab2lpn/mkl/latest/lib/intel64/libmkl_core.so
                   /home/spack/spack/opt/spack/linux-centos7-broadwell/gcc-8.2.0/intel-oneapi-mkl-2024.2.1-2ept5lpbp5bastej6jsrfm45y5ab2lpn/mkl/latest/lib/intel64/libmkl_blacs_intelmpi_lp64.so
                   /home/spack/spack/opt/spack/linux-centos7-broadwell/gcc-8.2.0/intel-oneapi-mkl-2024.2.1-2ept5lpbp5bastej6jsrfm45y5ab2lpn/mkl/latest/lib/intel64/libmkl_scalapack_lp64.so

  Using       56 parallel tasks.
  Task        0 on host f001 reporting.
  Task        1 on host f001 reporting.
  Task        2 on host f001 reporting.
  Task        3 on host f001 reporting.
  Task        4 on host f001 reporting.
  Task        5 on host f001 reporting.
  Task        6 on host f001 reporting.
  Task        7 on host f001 reporting.
  Task        8 on host f001 reporting.
  Task        9 on host f001 reporting.
  Task       10 on host f001 reporting.
  Task       11 on host f001 reporting.
  Task       12 on host f001 reporting.
  Task       13 on host f001 reporting.
  Task       14 on host f001 reporting.
  Task       15 on host f001 reporting.
  Task       16 on host f001 reporting.
  Task       17 on host f001 reporting.
  Task       18 on host f001 reporting.
  Task       19 on host f001 reporting.
  Task       20 on host f001 reporting.
  Task       21 on host f001 reporting.
  Task       22 on host f001 reporting.
  Task       23 on host f001 reporting.
  Task       24 on host f001 reporting.
  Task       25 on host f001 reporting.
  Task       26 on host f001 reporting.
  Task       27 on host f001 reporting.
  Task       28 on host f001 reporting.
  Task       29 on host f001 reporting.
  Task       30 on host f001 reporting.
  Task       31 on host f001 reporting.
  Task       32 on host f001 reporting.
  Task       33 on host f001 reporting.
  Task       34 on host f001 reporting.
  Task       35 on host f001 reporting.
  Task       36 on host f001 reporting.
  Task       37 on host f001 reporting.
  Task       38 on host f001 reporting.
  Task       39 on host f001 reporting.
  Task       40 on host f001 reporting.
  Task       41 on host f001 reporting.
  Task       42 on host f001 reporting.
  Task       43 on host f001 reporting.
  Task       44 on host f001 reporting.
  Task       45 on host f001 reporting.
  Task       46 on host f001 reporting.
  Task       47 on host f001 reporting.
  Task       48 on host f001 reporting.
  Task       49 on host f001 reporting.
  Task       50 on host f001 reporting.
  Task       51 on host f001 reporting.
  Task       52 on host f001 reporting.
  Task       53 on host f001 reporting.
  Task       54 on host f001 reporting.
  Task       55 on host f001 reporting.

  Performing system and environment tests:
  *** Environment variable OMP_NUM_THREADS is not set
  *** For performance reasons you might want to set it to 1
  | Checking for ScaLAPACK...
  | Testing pdtran()...
  | All pdtran() tests passed.

  Obtaining array dimensions for all initial allocations:
  
  -----------------------------------------------------------------------
  Parsing control.in (first pass over file, find array dimensions only).
  The contents of control.in will be repeated verbatim below
  unless switched off by setting 'verbatim_writeout .false.' .
  in the first line of control.in .
  -----------------------------------------------------------------------
  
  #=====================================================
  #FHI-aims file: ./control.in
  #Created using the Atomic Simulation Environment (ASE)
  #
  #List of parameters used to initialize the calculator:
  #=====================================================
  fo_folders                         f_ArLmCW f_Oru1Bu
  packed_matrix_format               index
  relativistic                       zora scalar 1e-12
  sc_accuracy_eev                    1E-2
  fo_dft                             final
  charge                             1
  sc_iter_limit                      200
  n_max_pulay                        10
  occupation_type                    gaussian 0.01
  sc_accuracy_etot                   1E-6
  xc                                 blyp
  mixer                              pulay
  sc_accuracy_rho                    1E-4
  fo_orbitals                        93.0 93.0 1 1 hole
  spin                               collinear
  fo_flavour                         None
  charge_mix_param                   0.5
  default_initial_moment             1
  #=======================================================
  
  ################################################################################
  #
  #  FHI-aims code project
  #  VB, Fritz-Haber Institut, 2009
  #
  #  Suggested "light" defaults for H atom (to be pasted into control.in file)
  #  Be sure to double-check any results obtained with these settings for post-processing,
  #  e.g., with the "tight" defaults and larger basis sets.
  #
  ################################################################################
    species        H
  #     global species definitions
      nucleus             1
      mass                1.00794
  #
      l_hartree           4
  #
      cut_pot             3.5  1.5  1.0
      basis_dep_cutoff    1e-4
  #
      radial_base         24 5.0
      radial_multiplier   1
      angular_grids       specified
        division   0.2421   50
        division   0.3822  110
        division   0.4799  194
        division   0.5341  302
  #      division   0.5626  434
  #      division   0.5922  590
  #      division   0.6542  770
  #      division   0.6868 1202
  #      outer_grid  770
        outer_grid  302
  ################################################################################
  #
  #  Definition of "minimal" basis
  #
  ################################################################################
  #     valence basis states
      valence      1  s   1.
  #     ion occupancy
      ion_occ      1  s   0.5
  ################################################################################
  #
  #  Suggested additional basis functions. For production calculations,
  #  uncomment them one after another (the most important basis functions are
  #  listed first).
  #
  #  Basis constructed for dimers: 0.5 A, 0.7 A, 1.0 A, 1.5 A, 2.5 A
  #
  ################################################################################
  #  "First tier" - improvements: -1014.90 meV to -62.69 meV
       hydro 2 s 2.1
       hydro 2 p 3.5
  #  "Second tier" - improvements: -12.89 meV to -1.83 meV
  #     hydro 1 s 0.85
  #     hydro 2 p 3.7
  #     hydro 2 s 1.2
  #     hydro 3 d 7
  #  "Third tier" - improvements: -0.25 meV to -0.12 meV
  #     hydro 4 f 11.2
  #     hydro 3 p 4.8
  #     hydro 4 d 9
  #     hydro 3 s 3.2
  ################################################################################
  #
  #  FHI-aims code project
  #  VB, Fritz-Haber Institut, 2009
  #
  #  Suggested "light" defaults for C atom (to be pasted into control.in file)
  #  Be sure to double-check any results obtained with these settings for post-processing,
  #  e.g., with the "tight" defaults and larger basis sets.
  #
  ################################################################################
    species        C
  #     global species definitions
      nucleus             6
      mass                12.0107
  #
      l_hartree           4
  #
      cut_pot             3.5  1.5  1.0
      basis_dep_cutoff    1e-4
  #
      radial_base         34 5.0
      radial_multiplier   1
      angular_grids specified
        division   0.3326   50
        division   0.5710  110
        division   0.7727  194
        division   0.8772  302
  #      division   0.9334  434
  #      division   0.9625  590
  #      division   0.9924  770
  #      division   1.0230  974
  #      division   1.4589 1202
  #     outer_grid  974
       outer_grid 302
  ################################################################################
  #
  #  Definition of "minimal" basis
  #
  ################################################################################
  #     valence basis states
      valence      2  s   2.
      valence      2  p   2.
  #     ion occupancy
      ion_occ      2  s   1.
      ion_occ      2  p   1.
  ################################################################################
  #
  #  Suggested additional basis functions. For production calculations,
  #  uncomment them one after another (the most important basis functions are
  #  listed first).
  #
  #  Constructed for dimers: 1.0 A, 1.25 A, 1.5 A, 2.0 A, 3.0 A
  #
  ################################################################################
  #  "First tier" - improvements: -1214.57 meV to -155.61 meV
       hydro 2 p 1.7
       hydro 3 d 6
       hydro 2 s 4.9
  #  "Second tier" - improvements: -67.75 meV to -5.23 meV
  #     hydro 4 f 9.8
  #     hydro 3 p 5.2
  #     hydro 3 s 4.3
  #     hydro 5 g 14.4
  #     hydro 3 d 6.2
  #  "Third tier" - improvements: -2.43 meV to -0.60 meV
  #     hydro 2 p 5.6
  #     hydro 2 s 1.4
  #     hydro 3 d 4.9
  #     hydro 4 f 11.2
  #  "Fourth tier" - improvements: -0.39 meV to -0.18 meV
  #     hydro 2 p 2.1
  #     hydro 5 g 16.4
  #     hydro 4 d 13.2
  #     hydro 3 s 13.6
  #     hydro 4 f 17.6
  #  Further basis functions - improvements: -0.08 meV and below
  #     hydro 3 s 2
  #     hydro 3 p 6
  #     hydro 4 d 20
  
  -----------------------------------------------------------------------
  Completed first pass over input file control.in .
  -----------------------------------------------------------------------
  
  
  -----------------------------------------------------------------------
  Parsing geometry.in (first pass over file, find array dimensions only).
  The contents of geometry.in will be repeated verbatim below
  unless switched off by setting 'verbatim_writeout .false.' .
  in the first line of geometry.in .
  -----------------------------------------------------------------------
  
  #=======================================================
  #FHI-aims file: ./geometry.in
  #Created using the Atomic Simulation Environment (ASE)
  #=======================================================
  atom 42.4664639500000050 8.4094342995670761 14.4481730620123443 H
  atom 44.6657076300000000 6.3904174226350365 17.5717718836755346 H
  atom 44.7225548800000041 8.4365984659813389 18.8441730565713925 H
  atom 42.2688707500000049 6.7155542527846555 13.5095535813835230 H
  atom 42.2571092499999992 4.6682402929485951 12.1914102769829551 H
  atom 43.5082192100000000 2.6498709001914467 12.9640446962605260 H
  atom 44.7787748500000049 2.7529501895507655 15.1180009085021005 H
  atom 44.8084138299999992 4.7972282668715680 16.4379557824672133 H
  atom 42.9748743899999965 8.3896361252231877 15.4092107160023808 C
  atom 43.5699278799999945 7.1995280093699021 15.8815774799569560 C
  atom 44.1914839500000056 7.2695027993797821 17.1419770044877176 C
  atom 44.2230831800000033 8.4472956878709962 17.8777006938877250 C
  atom 43.5512662999999947 5.9493871716813214 15.0876571182960060 C
  atom 42.8422830800000014 5.8659879187900161 13.8725468328788200 C
  atom 42.8312272699999994 4.6973451379666296 13.1168958782688385 C
  atom 43.5275864799999965 3.5675849652481495 13.5509932351724434 C
  atom 44.2335901200000023 3.6241041648030339 14.7541018722245330 C
  atom 44.2439402400000006 4.7957680178272710 15.5081677034655385 C
  atom 45.5712647200000021 11.3914130816533810 22.0667288656977441 H
  atom 42.8952098299999989 18.0711808855869904 21.7109818924606195 H
  atom 42.3721367200000003 16.8461339099580627 19.6335644943209857 H
  atom 42.4255339300000003 14.8455726336322442 18.2696790584157078 H
  atom 42.5451091799999972 12.3153012312716612 16.9173423784843919 H
  atom 44.8100604400000009 10.2260493238938945 20.0196552577642031 H
  atom 42.5232327900000016 10.4494577881972699 15.7239709278417195 H
  atom 45.2608395299999984 12.4324337065803689 22.1496081732755847 C
  atom 44.5341356499999961 13.0203434703379397 21.1097672432279282 C
  atom 44.4347901800000002 15.0988831368468439 22.4519138443586890 C
  atom 43.9720927700000033 16.4341334015389826 22.5997832100645084 C
  atom 43.2497014399999955 17.0486907459346320 21.5954943327210067 C
  atom 42.9531548199999946 16.3563544180831038 20.4127658532700238 C
  atom 43.3692766899999995 15.0380669480978071 20.2254948495353979 C
  atom 43.0081202300000029 14.3268245153378224 19.0318969526971564 C
  atom 43.3642584500000012 13.0165797703923047 18.8770077549287336 C
  atom 43.0989190100000030 12.0834926871015949 17.8206362526046220 C
  atom 43.6589232299999992 10.8659142212815407 18.1777419030151535 C
  atom 44.2939658199999968 11.0182592246371076 19.4861480210063007 C
  atom 44.1264820600000007 14.3847177103749999 21.2537870236090924 C
  atom 44.1307161999999948 12.3173384994643982 19.9148106692162798 C
  atom 43.6307740400000057 9.6316757481259820 17.4021636831952016 C
  atom 43.0052190600000017 9.5662014096881389 16.1406319276865986 C
  atom 46.1081379900000030 12.6371204743823551 24.1174256127603677 H
  atom 45.3612043299999996 14.9764192553386710 24.4120321131941651 H
  atom 44.1823099799999994 16.9558166546095457 23.5338737667819693 H
  atom 45.5647566899999958 13.1377720120386972 23.3196556657747642 C
  atom 45.1581224299999988 14.4482204784952231 23.4806589108235215 C
  atom 40.1428620100000018 24.6408166441903873 21.1718135008135242 H
  atom 40.8897956699999980 22.3015178632340678 20.8772070003797268 H
  atom 42.0686900200000053 20.3221204639631949 21.7553653467919226 H
  atom 40.6862433099999947 24.1401651065340417 21.9695834477991276 C
  atom 41.0928775699999989 22.8297166400775176 21.8085802027503739 C
  atom 40.6797352800000027 25.8865240369193579 23.2225102478761478 H
  atom 43.3557901700000059 19.2067562329857466 23.5782572211132724 H
  atom 43.8788632800000045 20.4318032086146779 25.6556746192529062 H
  atom 43.8254660700000045 22.4323644849404964 27.0195600551581840 H
  atom 43.7058908200000005 24.9626358873010759 28.3718967350894999 H
  atom 41.4409395600000039 27.0518877946788479 25.2695838558096888 H
  atom 43.7277672099999961 26.8284793303754689 29.5652681857321724 H
  atom 40.9901604699999993 24.8455034119923681 23.1396309402983071 C
  atom 41.7168643500000016 24.2575936482347991 24.1794718703459637 C
  atom 41.8162098199999974 22.1790539817258967 22.8373252692152029 C
  atom 42.2789072300000015 20.8438037170337545 22.6894559035093835 C
  atom 43.0012985599999951 20.2292463726381051 23.6937447808528852 C
  atom 43.2978451799999959 20.9215827004896333 24.8764732603038681 C
  atom 42.8817233099999982 22.2398701704749300 25.0637442640384940 C
  atom 43.2428797700000018 22.9511126032349146 26.2573421608767354 C
  atom 42.8867415499999964 24.2613573481804359 26.4122313586451583 C
  atom 43.1520809900000017 25.1944444314711440 27.4686028609692698 C
  atom 42.5920767700000056 26.4120228972911981 27.1114972105587384 C
  atom 41.9570341800000008 26.2596778939356312 25.8030910925675876 C
  atom 42.1245179400000040 22.8932194081977372 24.0354520899647994 C
  atom 42.1202837999999957 24.9605986191083389 25.3744284443576120 C
  atom 42.6202259599999991 27.6462613704467586 27.8870754303786939 C
  atom 43.2457809400000031 27.7117357088846035 29.1486071858872933 C
  atom 43.7845360499999998 28.8685028190056627 30.8410660515615476 H
  atom 41.5852923700000048 30.8875196959377014 27.7174672298983573 H
  atom 41.5284451200000007 28.8413386525913999 26.4450660570024993 H
  atom 43.9821292499999998 30.5623828657880807 31.7796855321903671 H
  atom 43.9938907500000056 32.6096968256241411 33.0978288365909350 H
  atom 42.7427807899999976 34.6280662183812922 32.3251944173133694 H
  atom 41.4722251499999999 34.5249869290219706 30.1712382050717913 H
  atom 41.4425861699999984 32.4807088517011664 28.8512833311066785 H
  atom 43.2761256099999940 28.8883009933495494 29.8800283975715111 C
  atom 42.6810721199999961 30.0784091092028376 29.4076616336169359 C
  atom 42.0595160499999992 30.0084343191929577 28.1472621090861743 C
  atom 42.0279168200000015 28.8306414307017427 27.4115384196861669 C
  atom 42.6997336999999959 31.3285499468914139 30.2015819952778841 C
  atom 43.4087169200000034 31.4119491997827254 31.4166922806950737 C
  atom 43.4197727300000054 32.5805919806061084 32.1723432353050498 C
  atom 42.7234135200000011 33.7102515533245892 31.7382458784014467 C
  atom 42.0174098800000024 33.6538329537697081 30.5351372413493571 C
  atom 42.0070597600000042 32.4821691007454660 29.7810714101083533 C
  
  -----------------------------------------------------------------------
  Completed first pass over input file geometry.in .
  -----------------------------------------------------------------------
  

  Basic array size parameters:
  | Number of species                 :        2
  | Number of atoms                   :       92
  | Max. basis fn. angular momentum   :        2
  | Max. atomic/ionic basis occupied n:        2
  | Max. number of basis fn. types    :        2
  | Max. radial fns per species/type  :        3
  | Max. logarithmic grid size        :     1277
  | Max. radial integration grid size :       34
  | Max. angular integration grid size:      302
  | Max. angular grid division number :        8
  | Radial grid for Hartree potential :     1277
  | Number of spin channels           :        2

------------------------------------------------------------
          Reading file control.in.
------------------------------------------------------------
  Using packed matrix format  2
  Scalar relativistic treatment of kinetic energy: ZORA.
  Threshold value for ZORA:   0.100000E-11
  Convergence accuracy of sum of eigenvalues:  0.1000E-01
  No previous restart file was found for FO_DFT run:
  ... Generating new file from restart.f1 and restart.f2!
  Charged system requested: Charge =   0.100000E+01.
  Maximum number of s.-c. iterations  :   200
  Pulay mixing - number of memorized iterations:   10
  Occupation type: Gaussian broadening, width =   0.100000E-01 eV.
  Convergence accuracy of total energy:  0.1000E-05
  XC: Using BLYP gradient-corrected functional.
  Using pulay charge density mixing.
  Convergence accuracy of self-consistent charge density:  0.1000E-03
  Spin treatment: Spin density functional theory - collinear spins.
  Charge density mixing - mixing parameter:     0.5000
  Initial spin moment per atom:   1.0000
 
  Reading configuration options for species H                   .
  | Found nuclear charge :   1.0000
  | Found atomic mass :    1.00794000000000      amu
  | Found l_max for Hartree potential  :   4
  | Found cutoff potl. onset [A], width [A], scale factor :    3.50000    1.50000    1.00000
  | Threshold for basis-dependent cutoff potential is   0.100000E-03
  | Found data for basic radial integration grid :    24 points, outermost radius =    5.000 A
  | Found multiplier for basic radial grid :   1
  | Found angular grid specification: user-specified.
  | Specified grid contains     5 separate shells.
  | Check grid settings after all constraints further below.
  | Found free-atom valence shell :  1 s   1.000
  | No ionic wave fns used. Skipping ion_occ.
  | Found hydrogenic basis function :  2 s   2.100
  | Found hydrogenic basis function :  2 p   3.500
  Species H                   : Missing cutoff potential type.
  Defaulting to exp(1/x)/(1-x)^2 type cutoff potential.
  Species H : No 'logarithmic' tag. Using default grid for free atom:
  | Default logarithmic grid data [bohr] : 0.1000E-03 0.1000E+03 0.1012E+01
  Species H : On-site basis accuracy parameter (for Gram-Schmidt orthonormalisation) not specified.
  Using default value basis_acc =  0.1000000E-03.
  Species H                   : Using default innermost maximum threshold i_radial=  2 for radial functions.
  Species H                   : Default cutoff onset for free atom density etc. : 0.35000000E+01 AA.
  Species H                   : Basic radial grid will be enhanced according to radial_multiplier =   1, to contain    24 grid points.
 
  Reading configuration options for species C                   .
  | Found nuclear charge :   6.0000
  | Found atomic mass :    12.0107000000000      amu
  | Found l_max for Hartree potential  :   4
  | Found cutoff potl. onset [A], width [A], scale factor :    3.50000    1.50000    1.00000
  | Threshold for basis-dependent cutoff potential is   0.100000E-03
  | Found data for basic radial integration grid :    34 points, outermost radius =    5.000 A
  | Found multiplier for basic radial grid :   1
  | Found angular grid specification: user-specified.
  | Specified grid contains     5 separate shells.
  | Check grid settings after all constraints further below.
  | Found free-atom valence shell :  2 s   2.000
  | Found free-atom valence shell :  2 p   2.000
  | No ionic wave fns used. Skipping ion_occ.
  | No ionic wave fns used. Skipping ion_occ.
  | Found hydrogenic basis function :  2 p   1.700
  | Found hydrogenic basis function :  3 d   6.000
  | Found hydrogenic basis function :  2 s   4.900
  Species C                   : Missing cutoff potential type.
  Defaulting to exp(1/x)/(1-x)^2 type cutoff potential.
  Species C : No 'logarithmic' tag. Using default grid for free atom:
  | Default logarithmic grid data [bohr] : 0.1000E-03 0.1000E+03 0.1012E+01
  Species C : On-site basis accuracy parameter (for Gram-Schmidt orthonormalisation) not specified.
  Using default value basis_acc =  0.1000000E-03.
  Species C                   : Using default innermost maximum threshold i_radial=  2 for radial functions.
  Species C                   : Default cutoff onset for free atom density etc. : 0.35000000E+01 AA.
  Species C                   : Basic radial grid will be enhanced according to radial_multiplier =   1, to contain    34 grid points.
 
  Finished reading input file 'control.in'.
 
------------------------------------------------------------


------------------------------------------------------------
          Reading geometry description geometry.in.
------------------------------------------------------------
  | The smallest distance between any two atoms is         1.08461069 AA.
  | The first atom of this pair is atom number                     23 .
  | The second atom of this pair is atom number                    35 .
  Input structure read successfully.
  The structure contains       92 atoms,  and a total of        371.000 electrons.

  Input geometry:
  | No unit cell requested.
  | Atomic structure:
  |       Atom                x [A]            y [A]            z [A]
  |    1: Species H            42.46646395        8.40943430       14.44817306
  |    2: Species H            44.66570763        6.39041742       17.57177188
  |    3: Species H            44.72255488        8.43659847       18.84417306
  |    4: Species H            42.26887075        6.71555425       13.50955358
  |    5: Species H            42.25710925        4.66824029       12.19141028
  |    6: Species H            43.50821921        2.64987090       12.96404470
  |    7: Species H            44.77877485        2.75295019       15.11800091
  |    8: Species H            44.80841383        4.79722827       16.43795578
  |    9: Species C            42.97487439        8.38963613       15.40921072
  |   10: Species C            43.56992788        7.19952801       15.88157748
  |   11: Species C            44.19148395        7.26950280       17.14197700
  |   12: Species C            44.22308318        8.44729569       17.87770069
  |   13: Species C            43.55126630        5.94938717       15.08765712
  |   14: Species C            42.84228308        5.86598792       13.87254683
  |   15: Species C            42.83122727        4.69734514       13.11689588
  |   16: Species C            43.52758648        3.56758497       13.55099324
  |   17: Species C            44.23359012        3.62410416       14.75410187
  |   18: Species C            44.24394024        4.79576802       15.50816770
  |   19: Species H            45.57126472       11.39141308       22.06672887
  |   20: Species H            42.89520983       18.07118089       21.71098189
  |   21: Species H            42.37213672       16.84613391       19.63356449
  |   22: Species H            42.42553393       14.84557263       18.26967906
  |   23: Species H            42.54510918       12.31530123       16.91734238
  |   24: Species H            44.81006044       10.22604932       20.01965526
  |   25: Species H            42.52323279       10.44945779       15.72397093
  |   26: Species C            45.26083953       12.43243371       22.14960817
  |   27: Species C            44.53413565       13.02034347       21.10976724
  |   28: Species C            44.43479018       15.09888314       22.45191384
  |   29: Species C            43.97209277       16.43413340       22.59978321
  |   30: Species C            43.24970144       17.04869075       21.59549433
  |   31: Species C            42.95315482       16.35635442       20.41276585
  |   32: Species C            43.36927669       15.03806695       20.22549485
  |   33: Species C            43.00812023       14.32682452       19.03189695
  |   34: Species C            43.36425845       13.01657977       18.87700775
  |   35: Species C            43.09891901       12.08349269       17.82063625
  |   36: Species C            43.65892323       10.86591422       18.17774190
  |   37: Species C            44.29396582       11.01825922       19.48614802
  |   38: Species C            44.12648206       14.38471771       21.25378702
  |   39: Species C            44.13071620       12.31733850       19.91481067
  |   40: Species C            43.63077404        9.63167575       17.40216368
  |   41: Species C            43.00521906        9.56620141       16.14063193
  |   42: Species H            46.10813799       12.63712047       24.11742561
  |   43: Species H            45.36120433       14.97641926       24.41203211
  |   44: Species H            44.18230998       16.95581665       23.53387377
  |   45: Species C            45.56475669       13.13777201       23.31965567
  |   46: Species C            45.15812243       14.44822048       23.48065891
  |   47: Species H            40.14286201       24.64081664       21.17181350
  |   48: Species H            40.88979567       22.30151786       20.87720700
  |   49: Species H            42.06869002       20.32212046       21.75536535
  |   50: Species C            40.68624331       24.14016511       21.96958345
  |   51: Species C            41.09287757       22.82971664       21.80858020
  |   52: Species H            40.67973528       25.88652404       23.22251025
  |   53: Species H            43.35579017       19.20675623       23.57825722
  |   54: Species H            43.87886328       20.43180321       25.65567462
  |   55: Species H            43.82546607       22.43236448       27.01956006
  |   56: Species H            43.70589082       24.96263589       28.37189674
  |   57: Species H            41.44093956       27.05188779       25.26958386
  |   58: Species H            43.72776721       26.82847933       29.56526819
  |   59: Species C            40.99016047       24.84550341       23.13963094
  |   60: Species C            41.71686435       24.25759365       24.17947187
  |   61: Species C            41.81620982       22.17905398       22.83732527
  |   62: Species C            42.27890723       20.84380372       22.68945590
  |   63: Species C            43.00129856       20.22924637       23.69374478
  |   64: Species C            43.29784518       20.92158270       24.87647326
  |   65: Species C            42.88172331       22.23987017       25.06374426
  |   66: Species C            43.24287977       22.95111260       26.25734216
  |   67: Species C            42.88674155       24.26135735       26.41223136
  |   68: Species C            43.15208099       25.19444443       27.46860286
  |   69: Species C            42.59207677       26.41202290       27.11149721
  |   70: Species C            41.95703418       26.25967789       25.80309109
  |   71: Species C            42.12451794       22.89321941       24.03545209
  |   72: Species C            42.12028380       24.96059862       25.37442844
  |   73: Species C            42.62022596       27.64626137       27.88707543
  |   74: Species C            43.24578094       27.71173571       29.14860719
  |   75: Species H            43.78453605       28.86850282       30.84106605
  |   76: Species H            41.58529237       30.88751970       27.71746723
  |   77: Species H            41.52844512       28.84133865       26.44506606
  |   78: Species H            43.98212925       30.56238287       31.77968553
  |   79: Species H            43.99389075       32.60969683       33.09782884
  |   80: Species H            42.74278079       34.62806622       32.32519442
  |   81: Species H            41.47222515       34.52498693       30.17123821
  |   82: Species H            41.44258617       32.48070885       28.85128333
  |   83: Species C            43.27612561       28.88830099       29.88002840
  |   84: Species C            42.68107212       30.07840911       29.40766163
  |   85: Species C            42.05951605       30.00843432       28.14726211
  |   86: Species C            42.02791682       28.83064143       27.41153842
  |   87: Species C            42.69973370       31.32854995       30.20158200
  |   88: Species C            43.40871692       31.41194920       31.41669228
  |   89: Species C            43.41977273       32.58059198       32.17234324
  |   90: Species C            42.72341352       33.71025155       31.73824588
  |   91: Species C            42.01740988       33.65383295       30.53513724
  |   92: Species C            42.00705976       32.48216910       29.78107141

  Initial moments and charges:
  |  Atom   Moment         Charge        Species
  |     1   0.100000E+01   0.000000E+00   H
  |     2   0.100000E+01   0.000000E+00   H
  |     3   0.100000E+01   0.000000E+00   H
  |     4   0.100000E+01   0.000000E+00   H
  |     5   0.100000E+01   0.000000E+00   H
  |     6   0.100000E+01   0.000000E+00   H
  |     7   0.100000E+01   0.000000E+00   H
  |     8   0.100000E+01   0.000000E+00   H
  |     9   0.100000E+01   0.000000E+00   C
  |    10   0.100000E+01   0.000000E+00   C
  |    11   0.100000E+01   0.000000E+00   C
  |    12   0.100000E+01   0.000000E+00   C
  |    13   0.100000E+01   0.000000E+00   C
  |    14   0.100000E+01   0.000000E+00   C
  |    15   0.100000E+01   0.000000E+00   C
  |    16   0.100000E+01   0.000000E+00   C
  |    17   0.100000E+01   0.000000E+00   C
  |    18   0.100000E+01   0.000000E+00   C
  |    19   0.100000E+01   0.000000E+00   H
  |    20   0.100000E+01   0.000000E+00   H
  |    21   0.100000E+01   0.000000E+00   H
  |    22   0.100000E+01   0.000000E+00   H
  |    23   0.100000E+01   0.000000E+00   H
  |    24   0.100000E+01   0.000000E+00   H
  |    25   0.100000E+01   0.000000E+00   H
  |    26   0.100000E+01   0.000000E+00   C
  |    27   0.100000E+01   0.000000E+00   C
  |    28   0.100000E+01   0.000000E+00   C
  |    29   0.100000E+01   0.000000E+00   C
  |    30   0.100000E+01   0.000000E+00   C
  |    31   0.100000E+01   0.000000E+00   C
  |    32   0.100000E+01   0.000000E+00   C
  |    33   0.100000E+01   0.000000E+00   C
  |    34   0.100000E+01   0.000000E+00   C
  |    35   0.100000E+01   0.000000E+00   C
  |    36   0.100000E+01   0.000000E+00   C
  |    37   0.100000E+01   0.000000E+00   C
  |    38   0.100000E+01   0.000000E+00   C
  |    39   0.100000E+01   0.000000E+00   C
  |    40   0.100000E+01   0.000000E+00   C
  |    41   0.100000E+01   0.000000E+00   C
  |    42   0.100000E+01   0.000000E+00   H
  |    43   0.100000E+01   0.000000E+00   H
  |    44   0.100000E+01   0.000000E+00   H
  |    45   0.100000E+01   0.000000E+00   C
  |    46   0.100000E+01   0.000000E+00   C
  |    47   0.100000E+01   0.000000E+00   H
  |    48   0.100000E+01   0.000000E+00   H
  |    49   0.100000E+01   0.000000E+00   H
  |    50   0.100000E+01   0.000000E+00   C
  |    51   0.100000E+01   0.000000E+00   C
  |    52   0.100000E+01   0.000000E+00   H
  |    53   0.100000E+01   0.000000E+00   H
  |    54   0.100000E+01   0.000000E+00   H
  |    55   0.100000E+01   0.000000E+00   H
  |    56   0.100000E+01   0.000000E+00   H
  |    57   0.100000E+01   0.000000E+00   H
  |    58   0.100000E+01   0.000000E+00   H
  |    59   0.100000E+01   0.000000E+00   C
  |    60   0.100000E+01   0.000000E+00   C
  |    61   0.100000E+01   0.000000E+00   C
  |    62   0.100000E+01   0.000000E+00   C
  |    63   0.100000E+01   0.000000E+00   C
  |    64   0.100000E+01   0.000000E+00   C
  |    65   0.100000E+01   0.000000E+00   C
  |    66   0.100000E+01   0.000000E+00   C
  |    67   0.100000E+01   0.000000E+00   C
  |    68   0.100000E+01   0.000000E+00   C
  |    69   0.100000E+01   0.000000E+00   C
  |    70   0.100000E+01   0.000000E+00   C
  |    71   0.100000E+01   0.000000E+00   C
  |    72   0.100000E+01   0.000000E+00   C
  |    73   0.100000E+01   0.000000E+00   C
  |    74   0.100000E+01   0.000000E+00   C
  |    75   0.100000E+01   0.000000E+00   H
  |    76   0.100000E+01   0.000000E+00   H
  |    77   0.100000E+01   0.000000E+00   H
  |    78   0.100000E+01   0.000000E+00   H
  |    79   0.100000E+01   0.000000E+00   H
  |    80   0.100000E+01   0.000000E+00   H
  |    81   0.100000E+01   0.000000E+00   H
  |    82   0.100000E+01   0.000000E+00   H
  |    83   0.100000E+01   0.000000E+00   C
  |    84   0.100000E+01   0.000000E+00   C
  |    85   0.100000E+01   0.000000E+00   C
  |    86   0.100000E+01   0.000000E+00   C
  |    87   0.100000E+01   0.000000E+00   C
  |    88   0.100000E+01   0.000000E+00   C
  |    89   0.100000E+01   0.000000E+00   C
  |    90   0.100000E+01   0.000000E+00   C
  |    91   0.100000E+01   0.000000E+00   C
  |    92   0.100000E+01   0.000000E+00   C

 
  Finished reading input file 'geometry.in'.
 

 
  Consistency checks for stacksize environment parameter are next.
 
  | Maximum stacksize for task 0: unlimited
  | Maximum stacksize for task 1: unlimited
  | Maximum stacksize for task 2: unlimited
  | Maximum stacksize for task 3: unlimited
  | Maximum stacksize for task 4: unlimited
  | Maximum stacksize for task 5: unlimited
  | Maximum stacksize for task 6: unlimited
  | Maximum stacksize for task 7: unlimited
  | Maximum stacksize for task 8: unlimited
  | Maximum stacksize for task 9: unlimited
  | Maximum stacksize for task 10: unlimited
  | Maximum stacksize for task 11: unlimited
  | Maximum stacksize for task 12: unlimited
  | Maximum stacksize for task 13: unlimited
  | Maximum stacksize for task 14: unlimited
  | Maximum stacksize for task 15: unlimited
  | Maximum stacksize for task 16: unlimited
  | Maximum stacksize for task 17: unlimited
  | Maximum stacksize for task 18: unlimited
  | Maximum stacksize for task 19: unlimited
  | Maximum stacksize for task 20: unlimited
  | Maximum stacksize for task 21: unlimited
  | Maximum stacksize for task 22: unlimited
  | Maximum stacksize for task 23: unlimited
  | Maximum stacksize for task 24: unlimited
  | Maximum stacksize for task 25: unlimited
  | Maximum stacksize for task 26: unlimited
  | Maximum stacksize for task 27: unlimited
  | Maximum stacksize for task 28: unlimited
  | Maximum stacksize for task 29: unlimited
  | Maximum stacksize for task 30: unlimited
  | Maximum stacksize for task 31: unlimited
  | Maximum stacksize for task 32: unlimited
  | Maximum stacksize for task 33: unlimited
  | Maximum stacksize for task 34: unlimited
  | Maximum stacksize for task 35: unlimited
  | Maximum stacksize for task 36: unlimited
  | Maximum stacksize for task 37: unlimited
  | Maximum stacksize for task 38: unlimited
  | Maximum stacksize for task 39: unlimited
  | Maximum stacksize for task 40: unlimited
  | Maximum stacksize for task 41: unlimited
  | Maximum stacksize for task 42: unlimited
  | Maximum stacksize for task 43: unlimited
  | Maximum stacksize for task 44: unlimited
  | Maximum stacksize for task 45: unlimited
  | Maximum stacksize for task 46: unlimited
  | Maximum stacksize for task 47: unlimited
  | Maximum stacksize for task 48: unlimited
  | Maximum stacksize for task 49: unlimited
  | Maximum stacksize for task 50: unlimited
  | Maximum stacksize for task 51: unlimited
  | Maximum stacksize for task 52: unlimited
  | Maximum stacksize for task 53: unlimited
  | Maximum stacksize for task 54: unlimited
  | Maximum stacksize for task 55: unlimited
  | Current stacksize for task 0: unlimited
  | Current stacksize for task 1: unlimited
  | Current stacksize for task 2: unlimited
  | Current stacksize for task 3: unlimited
  | Current stacksize for task 4: unlimited
  | Current stacksize for task 5: unlimited
  | Current stacksize for task 6: unlimited
  | Current stacksize for task 7: unlimited
  | Current stacksize for task 8: unlimited
  | Current stacksize for task 9: unlimited
  | Current stacksize for task 10: unlimited
  | Current stacksize for task 11: unlimited
  | Current stacksize for task 12: unlimited
  | Current stacksize for task 13: unlimited
  | Current stacksize for task 14: unlimited
  | Current stacksize for task 15: unlimited
  | Current stacksize for task 16: unlimited
  | Current stacksize for task 17: unlimited
  | Current stacksize for task 18: unlimited
  | Current stacksize for task 19: unlimited
  | Current stacksize for task 20: unlimited
  | Current stacksize for task 21: unlimited
  | Current stacksize for task 22: unlimited
  | Current stacksize for task 23: unlimited
  | Current stacksize for task 24: unlimited
  | Current stacksize for task 25: unlimited
  | Current stacksize for task 26: unlimited
  | Current stacksize for task 27: unlimited
  | Current stacksize for task 28: unlimited
  | Current stacksize for task 29: unlimited
  | Current stacksize for task 30: unlimited
  | Current stacksize for task 31: unlimited
  | Current stacksize for task 32: unlimited
  | Current stacksize for task 33: unlimited
  | Current stacksize for task 34: unlimited
  | Current stacksize for task 35: unlimited
  | Current stacksize for task 36: unlimited
  | Current stacksize for task 37: unlimited
  | Current stacksize for task 38: unlimited
  | Current stacksize for task 39: unlimited
  | Current stacksize for task 40: unlimited
  | Current stacksize for task 41: unlimited
  | Current stacksize for task 42: unlimited
  | Current stacksize for task 43: unlimited
  | Current stacksize for task 44: unlimited
  | Current stacksize for task 45: unlimited
  | Current stacksize for task 46: unlimited
  | Current stacksize for task 47: unlimited
  | Current stacksize for task 48: unlimited
  | Current stacksize for task 49: unlimited
  | Current stacksize for task 50: unlimited
  | Current stacksize for task 51: unlimited
  | Current stacksize for task 52: unlimited
  | Current stacksize for task 53: unlimited
  | Current stacksize for task 54: unlimited
  | Current stacksize for task 55: unlimited
 
  Consistency checks for the contents of control.in are next.
 
  MPI_IN_PLACE appears to work with this MPI implementation.
  | Keeping use_mpi_in_place .true. (see manual).
  Target number of points in a grid batch is not set. Defaulting to  100
  Method for grid partitioning is not set. Defaulting to parallel hash+maxmin partitioning.
  Batch size limit is not set. Defaulting to    200
  By default, will store active basis functions for each batch.
  If in need of memory, prune_basis_once .false. can be used to disable this option.
  communication_type for Hartree potential was not specified.
  Defaulting to calc_hartree .
  Pulay mixer: Number of initial linear mixing iterations not set.
  Defaulting to    0 iterations.
  Work space size for distributed Hartree potential not set.
  Defaulting to   0.200000E+03 MB.
  Mixing parameter for spin density mixing has not been set.
  Using charge_mix_param as default:     0.5000.
  Algorithm-dependent basis array size parameters:
  | n_max_pulay                         :       10
  Presetting      1001 iterations before the initial mixing cycle
  is restarted anyway using the sc_init_iter criterion / keyword.
  Presetting a factor      1.000 between actual scf density residual
  and density convergence criterion sc_accuracy_rho below which sc_init_iter
  takes no effect.
  Calculation of forces was not defined in control.in. No forces will be calculated.
  Geometry relaxation not requested: no relaxation will be performed.
  No accuracy limit for integral partition fn. given. Defaulting to  0.1000E-14.
  No threshold value for u(r) in integrations given. Defaulting to  0.1000E-05.
  No accuracy for occupation numbers given. Defaulting to  0.1000E-12.
  No threshold value for occupation numbers given. Defaulting to  0.0000E+00.
  No accuracy for fermi level given. Defaulting to  0.1000E-19.
  Maximum # of iterations to find E_F not set. Defaulting to  200.
  Preferred method for the eigenvalue solver ('KS_method') not specified in 'control.in'.
  Calling BLACS routine to test compilation state
  Since ScaLAPACK support is enabled, defaulting to ELPA (via ELSI).
  Will not use alltoall communication since running on < 1024 CPUs.
  Threshold for basis singularities not set.
  Default threshold for basis singularities:  0.1000E-04
  partition_type (choice of integration weights) for integrals was not specified.
  | Using a version of the partition function of Stratmann and coworkers ('stratmann_sparse').
  | At each grid point, the set of atoms used to build the partition table is smoothly restricted to
  | only those atoms whose free-atom density would be non-zero at that grid point.
  Partitioning for Hartree potential was not defined. Using partition_type for integrals.
  | Adjusted default value of keyword multip_moments_threshold to:       0.10000000E-11
  | This value may affect high angular momentum components of the Hartree potential in periodic systems.
  No q(lm)/r^(l+1) cutoff set for long-range Hartree potential.
  | Using default value of  0.100000E-09 .
  | Verify using the multipole_threshold keyword.
  Defaulting to new monopole extrapolation.
  Density update method: automatic selection selected.
  Charge integration errors on the 3D integration grid will be compensated
  by explicit normalization and distribution of residual charges.
  Use the "compensate_multipole_errors" flag to change this behaviour.
  Number of empty states calculated from fragments:  222
  Set 'collect_eigenvectors' to be '.true.' for use_density_matrix .false.
  Set 'collect_eigenvectors' to be '.true.' for fo_dft.
 
  Consistency checks for the contents of geometry.in are next.
 
 * Warning: Initial charge and total charge of the system are inconsistent.
 * Selected charge in control.in:     1.0000* Sum of initial charges in geometry.in:     0.0000
  Structure-dependent array size parameters: 
  | Number of distinct atom types in initial rho :        2
  | Maximum number of distinct radial functions  :        9
  | Maximum number of basis functions            :      964
  | Number of Kohn-Sham states (occupied + empty):      408
------------------------------------------------------------

------------------------------------------------------------
          Preparing all fixed parts of the calculation.
------------------------------------------------------------
  Determining machine precision:
    2.225073858507201E-308
  Setting up grids for atomic and cluster calculations.

  Creating wave function, potential, and density for free atoms.
  Runtime choices for atomic solver:
  | atomic solver xc        : BLYP
  | compute density gradient: 1
  | compute kinetic density : F

  Species: H

  List of occupied orbitals and eigenvalues:
    n    l              occ      energy [Ha]    energy [eV]
    1    0           1.0000        -0.238990        -6.5032


  Species: C

  List of occupied orbitals and eigenvalues:
    n    l              occ      energy [Ha]    energy [eV]
    1    0           2.0000       -10.067089      -273.9394
    2    0           2.0000        -0.497842       -13.5470
    2    1           2.0000        -0.189944        -5.1687

  Spin-polarized or charged system:
  Charge density initialized according to selected moments and charges.

  Creating spin-polarized density from free atoms.

  Species: H
  Charge:   0.000000
  Moment:   1.000000

  List of occupied orbitals and eigenvalues:
    n    l      energy [Ha]    energy [eV]    occupation
  Spin-up
    1    0        -0.271622        -7.3912     1.00000000
  Spin-down
    1    0         0.010752         0.2926     0.00000000


  Species: C
  Charge:   0.000000
  Moment:   1.000000

  List of occupied orbitals and eigenvalues:
    n    l      energy [Ha]    energy [eV]    occupation
  Spin-up
    1    0       -10.052093      -273.5314     1.00000000
    2    0        -0.512942       -13.9579     1.00000000
    2    1        -0.202181        -5.5016     1.50000000
  Spin-down
    1    0       -10.033506      -273.0256     1.00000000
    2    0        -0.456462       -12.4210     1.00000000
    2    1        -0.151185        -4.1140     0.50000000


  Adding cutoff potential to free-atom effective potential.
  Creating fixed part of basis set: Ionic, confined, hydrogenic.
 
  H                    hydrogenic:
 
  List of hydrogenic basis orbitals: 
    n    l      effective z      eigenvalue [eV]  inner max. [A]     outer max. [A]     outer radius [A]   
    2    0         2.100000       -14.9728           0.193243           1.317208           4.583499
    2    1         3.500000       -41.6669           0.602369           0.602369           3.723403
 
 
  C                    hydrogenic:
 
  List of hydrogenic basis orbitals: 
    n    l      effective z      eigenvalue [eV]  inner max. [A]     outer max. [A]     outer radius [A]   
    2    1         1.700000        -9.7616           1.230570           1.230570           4.607917
    3    2         6.000000       -54.4224           0.792453           0.792453           3.883070
    2    0         4.900000       -81.6679           0.082559           0.562749           3.078220
 
  Creating atomic-like basis functions for current effective potential.

  Species H                   :

  List of atomic basis orbitals and eigenvalues:
    n    l      energy [Ha]    energy [eV]    outer radius [A]
    1    0        -0.238990        -6.5032       4.527807


  Species C                   :

  List of atomic basis orbitals and eigenvalues:
    n    l      energy [Ha]    energy [eV]    outer radius [A]
    1    0       -10.067089      -273.9394       1.934409
    2    0        -0.497842       -13.5470       4.496620
    2    1        -0.189944        -5.1687       4.551928

  Assembling full basis from fixed parts.
  | Species H :   atomic orbital   1 s accepted.
  | Species H :    hydro orbital   2 s accepted.
  | Species H :    hydro orbital   2 p accepted.
  | Species C :   atomic orbital   1 s accepted.
  | Species C :    hydro orbital   2 s accepted.
  | Species C :   atomic orbital   2 s accepted.
  | Species C :   atomic orbital   2 p accepted.
  | Species C :    hydro orbital   2 p accepted.
  | Species C :    hydro orbital   3 d accepted.
 
  Basis size parameters after reduction:
  | Total number of radial functions:        9
  | Total number of basis functions :      964
 
  Per-task memory consumption for arrays in subroutine allocate_ext:
  |           2.230576MB.
  Testing on-site integration grid accuracy.
  |  Species  Function  <phi|h_atom|phi> (log., in eV)  <phi|h_atom|phi> (rad., in eV)
           1        1                 -6.5044527913                 -6.5032312304
           1        2                 13.5128264660                 13.5186953162
           1        3                 25.3317713414                 25.3319138181
           2        4               -273.9394205892               -273.9393868748
           2        5                -10.6145279052                -10.6144887969
           2        6                 17.1727568254                 17.1688026287
           2        7                 -5.1704957803                 -5.1720974370
           2        8                  8.7521213222                  8.7293892811
           2        9                 27.7044268360                 27.7044408576

  Preparing densities etc. for the partition functions (integrals / Hartree potential).

  Preparations completed.
  max(cpu_time)          :      0.179 s.
  Wall clock time (cpu1) :      0.357 s.
------------------------------------------------------------

  Initializing index lists of integration centers etc. from given atomic structure:
  | Number of centers in hartree potential         :        92
  | Number of centers in hartree multipole         :        92
  | Number of centers in electron density summation:        92
  | Number of centers in basis integrals           :        92
  | Number of centers in integrals                 :        92
  | Number of centers in hamiltonian               :        92

------------------------------------------------------------
          Begin self-consistency loop: Initialization.

          Date     :  20241106, Time     :  130509.637
------------------------------------------------------------
  * Using 56 tasks for Scalapack Eigenvalue solver.
  Detailed listing of tasks and assigned k-points:
  (for non-periodic systems, the "k-point" denotes an internal label only)
   Task     0 k-point     1 on f001
   Task     1 k-point     1 on f001
   Task     2 k-point     1 on f001
   Task     3 k-point     1 on f001
   Task     4 k-point     1 on f001
   Task     5 k-point     1 on f001
   Task     6 k-point     1 on f001
   Task     7 k-point     1 on f001
   Task     8 k-point     1 on f001
   Task     9 k-point     1 on f001
   Task    10 k-point     1 on f001
   Task    11 k-point     1 on f001
   Task    12 k-point     1 on f001
   Task    13 k-point     1 on f001
   Task    14 k-point     1 on f001
   Task    15 k-point     1 on f001
   Task    16 k-point     1 on f001
   Task    17 k-point     1 on f001
   Task    18 k-point     1 on f001
   Task    19 k-point     1 on f001
   Task    20 k-point     1 on f001
   Task    21 k-point     1 on f001
   Task    22 k-point     1 on f001
   Task    23 k-point     1 on f001
   Task    24 k-point     1 on f001
   Task    25 k-point     1 on f001
   Task    26 k-point     1 on f001
   Task    27 k-point     1 on f001
   Task    28 k-point     1 on f001
   Task    29 k-point     1 on f001
   Task    30 k-point     1 on f001
   Task    31 k-point     1 on f001
   Task    32 k-point     1 on f001
   Task    33 k-point     1 on f001
   Task    34 k-point     1 on f001
   Task    35 k-point     1 on f001
   Task    36 k-point     1 on f001
   Task    37 k-point     1 on f001
   Task    38 k-point     1 on f001
   Task    39 k-point     1 on f001
   Task    40 k-point     1 on f001
   Task    41 k-point     1 on f001
   Task    42 k-point     1 on f001
   Task    43 k-point     1 on f001
   Task    44 k-point     1 on f001
   Task    45 k-point     1 on f001
   Task    46 k-point     1 on f001
   Task    47 k-point     1 on f001
   Task    48 k-point     1 on f001
   Task    49 k-point     1 on f001
   Task    50 k-point     1 on f001
   Task    51 k-point     1 on f001
   Task    52 k-point     1 on f001
   Task    53 k-point     1 on f001
   Task    54 k-point     1 on f001
   Task    55 k-point     1 on f001
  Tasks:    56 split into      8 X      7 BLACS grid
  Calculating block size based on n_basis =          964  max_nprow =            8  max_npcol =            7
  ScaLAPACK block size set to:           16
  Allocating        0.141 MB for ovlp
  Allocating        0.281 MB for ham
  Allocating        0.281 MB for eigenvec
  Required Scalapack workspace - INTEGER:            1  REAL:             1
  Partitioning the integration grid into batches with parallel hashing+maxmin method.
  | Number of batches:     4813
  | Maximal batch size:     200
  | Minimal batch size:       3
  | Average batch size:     102.426
  | Standard deviation of batch sizes:      26.878

  Integration load balanced across    56 MPI tasks.
  Work distribution over tasks is as follows:
  Task     0 has       8763 integration points.
  Task     1 has       8832 integration points.
  Task     2 has       8820 integration points.
  Task     3 has       8821 integration points.
  Task     4 has       8801 integration points.
  Task     5 has       8731 integration points.
  Task     6 has       8730 integration points.
  Task     7 has       8833 integration points.
  Task     8 has       8817 integration points.
  Task     9 has       8823 integration points.
  Task    10 has       8733 integration points.
  Task    11 has       8821 integration points.
  Task    12 has       8831 integration points.
  Task    13 has       8836 integration points.
  Task    14 has       8852 integration points.
  Task    15 has       8834 integration points.
  Task    16 has       8824 integration points.
  Task    17 has       8829 integration points.
  Task    18 has       8830 integration points.
  Task    19 has       8828 integration points.
  Task    20 has       8805 integration points.
  Task    21 has       8830 integration points.
  Task    22 has       8753 integration points.
  Task    23 has       8755 integration points.
  Task    24 has       8806 integration points.
  Task    25 has       8795 integration points.
  Task    26 has       8740 integration points.
  Task    27 has       8799 integration points.
  Task    28 has       8826 integration points.
  Task    29 has       8735 integration points.
  Task    30 has       8815 integration points.
  Task    31 has       8817 integration points.
  Task    32 has       8817 integration points.
  Task    33 has       8730 integration points.
  Task    34 has       8824 integration points.
  Task    35 has       8803 integration points.
  Task    36 has       8740 integration points.
  Task    37 has       8847 integration points.
  Task    38 has       8731 integration points.
  Task    39 has       8796 integration points.
  Task    40 has       8849 integration points.
  Task    41 has       8823 integration points.
  Task    42 has       8766 integration points.
  Task    43 has       8802 integration points.
  Task    44 has       8811 integration points.
  Task    45 has       8812 integration points.
  Task    46 has       8817 integration points.
  Task    47 has       8828 integration points.
  Task    48 has       8832 integration points.
  Task    49 has       8860 integration points.
  Task    50 has       8828 integration points.
  Task    51 has       8813 integration points.
  Task    52 has       8853 integration points.
  Task    53 has       8782 integration points.
  Task    54 has       8819 integration points.
  Task    55 has       8728 integration points.
  Initializing partition tables, free-atom densities, potentials, etc. across the integration grid (initialize_grid_storage).
  | initialize_grid_storage: Actual outermost partition radius vs. multipole_radius_free
  | (-- VB: in principle, multipole_radius_free should be larger, hence this output)
  | Species        1: Confinement radius =              4.999999999999999 AA, multipole_radius_free =              5.054417573612229 AA.
  | Species        1: outer_partition_radius set to              5.054417573612229 AA .
  | Species        2: Confinement radius =              4.999999999999999 AA, multipole_radius_free =              5.019602836301480 AA.
  | Species        2: outer_partition_radius set to              5.019602836301480 AA .
  | The sparse table of interatomic distances needs         44.99 kbyte instead of        67.71 kbyte of memory.
  | Net number of integration points:   492976
  | of which are non-zero points    :   421364
  Renormalizing the initial density to the exact electron count on the 3D integration grid.
  | Initial density: Formal number of electrons (from input files) :     372.0000000000
  | Integrated number of electrons on 3D grid     :     371.9997885229
  | Charge integration error                      :      -0.0002114771
  | Normalization factor for density and gradient :       1.0000005685
  Renormalizing the free-atom superposition density to the exact electron count on the 3D integration grid.
  | Formal number of electrons (from input files) :     371.0000000000
  | Integrated number of electrons on 3D grid     :     371.9997100440
  | Charge integration error                      :      -0.0002899560
  | Normalization factor for density and gradient :       1.0000007795
  Obtaining max. number of non-zero basis functions in each batch (get_n_compute_maxes).
  | Maximal number of non-zero basis functions:      253 in task     0
  | Maximal number of non-zero basis functions:      239 in task     1
  | Maximal number of non-zero basis functions:      251 in task     2
  | Maximal number of non-zero basis functions:      253 in task     3
  | Maximal number of non-zero basis functions:      249 in task     4
  | Maximal number of non-zero basis functions:      253 in task     5
  | Maximal number of non-zero basis functions:      252 in task     6
  | Maximal number of non-zero basis functions:      253 in task     7
  | Maximal number of non-zero basis functions:      249 in task     8
  | Maximal number of non-zero basis functions:      250 in task     9
  | Maximal number of non-zero basis functions:      250 in task    10
  | Maximal number of non-zero basis functions:      253 in task    11
  | Maximal number of non-zero basis functions:      251 in task    12
  | Maximal number of non-zero basis functions:      247 in task    13
  | Maximal number of non-zero basis functions:      239 in task    14
  | Maximal number of non-zero basis functions:      253 in task    15
  | Maximal number of non-zero basis functions:      249 in task    16
  | Maximal number of non-zero basis functions:      241 in task    17
  | Maximal number of non-zero basis functions:      248 in task    18
  | Maximal number of non-zero basis functions:      249 in task    19
  | Maximal number of non-zero basis functions:      248 in task    20
  | Maximal number of non-zero basis functions:      251 in task    21
  | Maximal number of non-zero basis functions:      252 in task    22
  | Maximal number of non-zero basis functions:      248 in task    23
  | Maximal number of non-zero basis functions:      248 in task    24
  | Maximal number of non-zero basis functions:      250 in task    25
  | Maximal number of non-zero basis functions:      253 in task    26
  | Maximal number of non-zero basis functions:      248 in task    27
  | Maximal number of non-zero basis functions:      247 in task    28
  | Maximal number of non-zero basis functions:      250 in task    29
  | Maximal number of non-zero basis functions:      253 in task    30
  | Maximal number of non-zero basis functions:      241 in task    31
  | Maximal number of non-zero basis functions:      244 in task    32
  | Maximal number of non-zero basis functions:      245 in task    33
  | Maximal number of non-zero basis functions:      251 in task    34
  | Maximal number of non-zero basis functions:      251 in task    35
  | Maximal number of non-zero basis functions:      246 in task    36
  | Maximal number of non-zero basis functions:      247 in task    37
  | Maximal number of non-zero basis functions:      247 in task    38
  | Maximal number of non-zero basis functions:      239 in task    39
  | Maximal number of non-zero basis functions:      253 in task    40
  | Maximal number of non-zero basis functions:      246 in task    41
  | Maximal number of non-zero basis functions:      253 in task    42
  | Maximal number of non-zero basis functions:      253 in task    43
  | Maximal number of non-zero basis functions:      253 in task    44
  | Maximal number of non-zero basis functions:      253 in task    45
  | Maximal number of non-zero basis functions:      252 in task    46
  | Maximal number of non-zero basis functions:      250 in task    47
  | Maximal number of non-zero basis functions:      247 in task    48
  | Maximal number of non-zero basis functions:      250 in task    49
  | Maximal number of non-zero basis functions:      250 in task    50
  | Maximal number of non-zero basis functions:      255 in task    51
  | Maximal number of non-zero basis functions:      253 in task    52
  | Maximal number of non-zero basis functions:      251 in task    53
  | Maximal number of non-zero basis functions:      249 in task    54
  | Maximal number of non-zero basis functions:      255 in task    55
  Selecting the method for density update.
  split updates selected: force will be updated via density matrix and electron density via Kohn Sham orbitals.
  Scalapack and split updates requested:
  Switching to packed matrix format "index" by default.
  Hamiltonian matrix size:
  | Size of matrix non-packed:                465130
  | Size of matrix packed:          179101
  Allocating        6.001 MB for KS_eigenvector
  Integrating Hamiltonian matrix: batch-based integration.
  Time summed over all CPUs for integration: real work       37.232 s, elapsed       64.626 s => Consider using load balancing!
  Integrating overlap matrix.
  Time summed over all CPUs for integration: real work        4.761 s, elapsed        8.682 s
  Decreasing sparse matrix size:
  | Tolerance:  0.1000E-12
  Hamiltonian matrix
  | Array has   172562 nonzero elements out of   179101 elements
  | Sparsity factor is 0.037
  Overlap matrix
  | Array has   168200 nonzero elements out of   179101 elements
  | Sparsity factor is 0.061
  New size of hamiltonian matrix:      172563
  Not deallocating overlap matrix.

  Reading cluster restart information from file restart.combined
  Writing Kohn-Sham eigenvalues.

  Spin-up eigenvalues:

  State    Occupation    Eigenvalue [Ha]    Eigenvalue [eV]
      1       1.00000         -10.059044         -273.72051
      2       1.00000         -10.058268         -273.69940
      3       1.00000         -10.057763         -273.68565
      4       1.00000         -10.052481         -273.54193
      5       1.00000         -10.050732         -273.49433
      6       1.00000         -10.050639         -273.49181
      7       1.00000         -10.050055         -273.47591
      8       1.00000         -10.045980         -273.36503
      9       1.00000         -10.045565         -273.35372
     10       1.00000         -10.044595         -273.32734
     11       1.00000         -10.043477         -273.29693
     12       1.00000         -10.043308         -273.29232
     13       1.00000         -10.042305         -273.26501
     14       1.00000         -10.041473         -273.24238
     15       1.00000         -10.040272         -273.20970
     16       1.00000         -10.040071         -273.20423
     17       1.00000         -10.037168         -273.12523
     18       1.00000         -10.036488         -273.10673
     19       1.00000         -10.036402         -273.10440
     20       1.00000         -10.033872         -273.03554
     21       1.00000         -10.033822         -273.03419
     22       1.00000         -10.031855         -272.98067
     23       1.00000         -10.031705         -272.97660
     24       1.00000         -10.020921         -272.68314
     25       1.00000         -10.020154         -272.66227
     26       1.00000         -10.019263         -272.63803
     27       1.00000         -10.014992         -272.52180
     28       1.00000         -10.014696         -272.51373
     29       1.00000          -9.931792         -270.25781
     30       1.00000          -9.931407         -270.24733
     31       1.00000          -9.931092         -270.23876
     32       1.00000          -9.931076         -270.23834
     33       1.00000          -9.930926         -270.23426
     34       1.00000          -9.928584         -270.17052
     35       1.00000          -9.927396         -270.13819
     36       1.00000          -9.925763         -270.09376
     37       1.00000          -9.924953         -270.07171
     38       1.00000          -9.924339         -270.05501
     39       1.00000          -9.924209         -270.05147
     40       1.00000          -9.923946         -270.04430
     41       1.00000          -9.923517         -270.03264
     42       1.00000          -9.921194         -269.96943
     43       1.00000          -9.917912         -269.88013
     44       1.00000          -9.917152         -269.85945
     45       1.00000          -9.916066         -269.82987
     46       1.00000          -9.915689         -269.81964
     47       1.00000          -9.914768         -269.79455
     48       1.00000          -9.914650         -269.79135
     49       1.00000          -9.914213         -269.77945
     50       1.00000          -9.914180         -269.77856
     51       1.00000          -9.914100         -269.77639
     52       1.00000          -9.913671         -269.76471
     53       1.00000          -9.913451         -269.75872
     54       1.00000          -9.910927         -269.69004
     55       1.00000          -9.909755         -269.65816
     56       1.00000          -9.900838         -269.41551
     57       1.00000          -0.941995          -25.63299
     58       1.00000          -0.917925          -24.97800
     59       1.00000          -0.903958          -24.59795
     60       1.00000          -0.879864          -23.94231
     61       1.00000          -0.874441          -23.79475
     62       1.00000          -0.854010          -23.23878
     63       1.00000          -0.823743          -22.41520
     64       1.00000          -0.815242          -22.18387
     65       1.00000          -0.813717          -22.14237
     66       1.00000          -0.795435          -21.64488
     67       1.00000          -0.794309          -21.61425
     68       1.00000          -0.792211          -21.55715
     69       1.00000          -0.783862          -21.32997
     70       1.00000          -0.783013          -21.30687
     71       1.00000          -0.774550          -21.07657
     72       1.00000          -0.767347          -20.88058
     73       1.00000          -0.760736          -20.70068
     74       1.00000          -0.759353          -20.66305
     75       1.00000          -0.757092          -20.60152
     76       1.00000          -0.732551          -19.93373
     77       1.00000          -0.713411          -19.41289
     78       1.00000          -0.705291          -19.19193
     79       1.00000          -0.691370          -18.81314
     80       1.00000          -0.690671          -18.79411
     81       1.00000          -0.681259          -18.53800
     82       1.00000          -0.680659          -18.52168
     83       1.00000          -0.678370          -18.45938
     84       1.00000          -0.675045          -18.36890
     85       1.00000          -0.669183          -18.20938
     86       1.00000          -0.666125          -18.12618
     87       1.00000          -0.658781          -17.92634
     88       1.00000          -0.656988          -17.87756
     89       1.00000          -0.642298          -17.47781
     90       1.00000          -0.633623          -17.24176
     91       1.00000          -0.632626          -17.21463
     92       1.00000          -0.624655          -16.99773
     93       1.00000          -0.613652          -16.69832
     94       1.00000          -0.604217          -16.44158
     95       1.00000          -0.594166          -16.16809
     96       1.00000          -0.583522          -15.87844
     97       1.00000          -0.578622          -15.74512
     98       1.00000          -0.574128          -15.62283
     99       1.00000          -0.573001          -15.59214
    100       1.00000          -0.566741          -15.42181
    101       1.00000          -0.565557          -15.38960
    102       1.00000          -0.559725          -15.23089
    103       1.00000          -0.550348          -14.97573
    104       1.00000          -0.542461          -14.76113
    105       1.00000          -0.540585          -14.71008
    106       1.00000          -0.534691          -14.54967
    107       1.00000          -0.533425          -14.51522
    108       1.00000          -0.529123          -14.39816
    109       1.00000          -0.522325          -14.21319
    110       1.00000          -0.519865          -14.14626
    111       1.00000          -0.508122          -13.82671
    112       1.00000          -0.504923          -13.73965
    113       1.00000          -0.499016          -13.57891
    114       1.00000          -0.497775          -13.54516
    115       1.00000          -0.495292          -13.47759
    116       1.00000          -0.495056          -13.47115
    117       1.00000          -0.490965          -13.35983
    118       1.00000          -0.487556          -13.26707
    119       1.00000          -0.487123          -13.25530
    120       1.00000          -0.482984          -13.14268
    121       1.00000          -0.478557          -13.02219
    122       1.00000          -0.470929          -12.81462
    123       1.00000          -0.470691          -12.80816
    124       1.00000          -0.469738          -12.78223
    125       1.00000          -0.467837          -12.73049
    126       1.00000          -0.467672          -12.72600
    127       1.00000          -0.466567          -12.69594
    128       1.00000          -0.454413          -12.36520
    129       1.00000          -0.454010          -12.35423
    130       1.00000          -0.453407          -12.33784
    131       1.00000          -0.451754          -12.29285
    132       1.00000          -0.444079          -12.08399
    133       1.00000          -0.435554          -11.85204
    134       1.00000          -0.434807          -11.83169
    135       1.00000          -0.430182          -11.70585
    136       1.00000          -0.424607          -11.55415
    137       1.00000          -0.423520          -11.52456
    138       1.00000          -0.422168          -11.48777
    139       1.00000          -0.417141          -11.35099
    140       1.00000          -0.414206          -11.27111
    141       1.00000          -0.413866          -11.26188
    142       1.00000          -0.409012          -11.12979
    143       1.00000          -0.407517          -11.08911
    144       1.00000          -0.400522          -10.89877
    145       1.00000          -0.394213          -10.72708
    146       1.00000          -0.394011          -10.72157
    147       1.00000          -0.389177          -10.59006
    148       1.00000          -0.388280          -10.56564
    149       1.00000          -0.384370          -10.45924
    150       1.00000          -0.381995          -10.39462
    151       1.00000          -0.379057          -10.31467
    152       1.00000          -0.371492          -10.10881
    153       1.00000          -0.371238          -10.10189
    154       1.00000          -0.369439          -10.05294
    155       1.00000          -0.366825           -9.98180
    156       1.00000          -0.363423           -9.88924
    157       1.00000          -0.361634           -9.84056
    158       1.00000          -0.352022           -9.57901
    159       1.00000          -0.347297           -9.45045
    160       1.00000          -0.346450           -9.42737
    161       1.00000          -0.344399           -9.37157
    162       1.00000          -0.343138           -9.33725
    163       1.00000          -0.337305           -9.17854
    164       1.00000          -0.334219           -9.09456
    165       1.00000          -0.331034           -9.00788
    166       1.00000          -0.327519           -8.91224
    167       1.00000          -0.325147           -8.84770
    168       1.00000          -0.316394           -8.60951
    169       1.00000          -0.315174           -8.57632
    170       1.00000          -0.310318           -8.44419
    171       1.00000          -0.309309           -8.41671
    172       1.00000          -0.307069           -8.35578
    173       1.00000          -0.301481           -8.20371
    174       1.00000          -0.301350           -8.20015
    175       1.00000          -0.298925           -8.13415
    176       1.00000          -0.289291           -7.87201
    177       1.00000          -0.283851           -7.72398
    178       1.00000          -0.280443           -7.63124
    179       1.00000          -0.253506           -6.89825
    180       1.00000          -0.244446           -6.65171
    181       0.00000          -0.243364           -6.62226
    182       1.00000          -0.232506           -6.32682
    183       1.00000          -0.229504           -6.24513
    184       1.00000          -0.223681           -6.08667
    185       1.00000          -0.214259           -5.83029
    186       0.00000          -0.192303           -5.23283
    187       1.00000          -0.183337           -4.98884
    188       1.00000          -0.168524           -4.58578
    189       0.00000          -0.162643           -4.42574
    190       0.00000          -0.159468           -4.33935
    191       0.00000          -0.156442           -4.25699
    192       0.00000          -0.139868           -3.80600
    193       0.00000          -0.132634           -3.60915
    194       0.00000          -0.123365           -3.35693
    195       0.00000          -0.120954           -3.29133
    196       0.00000          -0.074304           -2.02191
    197       0.00000          -0.073190           -1.99161
    198       0.00000          -0.061729           -1.67972
    199       0.00000          -0.056484           -1.53701
    200       0.00000          -0.052095           -1.41757
    201       0.00000          -0.050136           -1.36426
    202       0.00000          -0.047764           -1.29973
    203       0.00000          -0.045821           -1.24686
    204       0.00000          -0.041962           -1.14184
    205       0.00000          -0.041634           -1.13293
    206       0.00000          -0.040143           -1.09235
    207       0.00000          -0.030839           -0.83916
    208       0.00000          -0.027319           -0.74339
    209       0.00000          -0.022286           -0.60643
    210       0.00000          -0.019746           -0.53733
    211       0.00000          -0.016142           -0.43925
    212       0.00000          -0.009402           -0.25584
    213       0.00000          -0.005859           -0.15942
    214       0.00000          -0.004994           -0.13590
    215       0.00000           0.002774            0.07547
    216       0.00000           0.016984            0.46215
    217       0.00000           0.026798            0.72921
    218       0.00000           0.032246            0.87747
    219       0.00000           0.037903            1.03138
    220       0.00000           0.039033            1.06213
    221       0.00000           0.044126            1.20074
    222       0.00000           0.045842            1.24743
    223       0.00000           0.045878            1.24840
    224       0.00000           0.047011            1.27924
    225       0.00000           0.052211            1.42072
    226       0.00000           0.054887            1.49354
    227       0.00000           0.055847            1.51966
    228       0.00000           0.062492            1.70050
    229       0.00000           0.063447            1.72648
    230       0.00000           0.063617            1.73110
    231       0.00000           0.067381            1.83353
    232       0.00000           0.068436            1.86223
    233       0.00000           0.079165            2.15420
    234       0.00000           0.081087            2.20648
    235       0.00000           0.081591            2.22021
    236       0.00000           0.085207            2.31861
    237       0.00000           0.087022            2.36800
    238       0.00000           0.091617            2.49303
    239       0.00000           0.094236            2.56428
    240       0.00000           0.099724            2.71364
    241       0.00000           0.104200            2.83541
    242       0.00000           0.108264            2.94601
[...]
    247       0.00000           0.126048            3.42993
    248       0.00000           0.128066            3.48487
    249       0.00000           0.130421            3.54893
    250       0.00000           0.133506            3.63289
    251       0.00000           0.136296            3.70879
    252       0.00000           0.140360            3.81940
    253       0.00000           0.144996            3.94555
    254       0.00000           0.148599            4.04359
    255       0.00000           0.149954            4.08046
    256       0.00000           0.152157            4.14039
    257       0.00000           0.154982            4.21728
    258       0.00000           0.157971            4.29862
    259       0.00000           0.160896            4.37819
    260       0.00000           0.165495            4.50335
    261       0.00000           0.167624            4.56129
    262       0.00000           0.168378            4.58180
    263       0.00000           0.169211            4.60446
    264       0.00000           0.171019            4.65367
    265       0.00000           0.174297            4.74287
    266       0.00000           0.179012            4.87116
    267       0.00000           0.181353            4.93487
    268       0.00000           0.186877            5.08519
    269       0.00000           0.187112            5.09157
    270       0.00000           0.193266            5.25904
    271       0.00000           0.194369            5.28905
    272       0.00000           0.199098            5.41772
    273       0.00000           0.200822            5.46464
    274       0.00000           0.201307            5.47785
    275       0.00000           0.206086            5.60790
    276       0.00000           0.206557            5.62071
    277       0.00000           0.211204            5.74716
    278       0.00000           0.213071            5.79796
    279       0.00000           0.214919            5.84825
    280       0.00000           0.217511            5.91876
    281       0.00000           0.219674            5.97763
    282       0.00000           0.222947            6.06669
    283       0.00000           0.223271            6.07552
    284       0.00000           0.228782            6.22548
    285       0.00000           0.233097            6.34288
    286       0.00000           0.233407            6.35133
    287       0.00000           0.236093            6.42441
    288       0.00000           0.236573            6.43747
    289       0.00000           0.239529            6.51790
    290       0.00000           0.243703            6.63150
    291       0.00000           0.248431            6.76015
    292       0.00000           0.253756            6.90505
    293       0.00000           0.255249            6.94568
    294       0.00000           0.256704            6.98526
    295       0.00000           0.257677            7.01175
    296       0.00000           0.260132            7.07854
    297       0.00000           0.261961            7.12833
    298       0.00000           0.262730            7.14925
    299       0.00000           0.264285            7.19157
    300       0.00000           0.268531            7.30711
    301       0.00000           0.269059            7.32146
    302       0.00000           0.274066            7.45772
    303       0.00000           0.277803            7.55941
    304       0.00000           0.278647            7.58236
    305       0.00000           0.279965            7.61825
    306       0.00000           0.282102            7.67637
    307       0.00000           0.283910            7.72558
    308       0.00000           0.284617            7.74482
    309       0.00000           0.286955            7.80844
    310       0.00000           0.288923            7.86200
    311       0.00000           0.289061            7.86575
    312       0.00000           0.292360            7.95552
    313       0.00000           0.293922            7.99802
    314       0.00000           0.294179            8.00502
    315       0.00000           0.299096            8.13881
    316       0.00000           0.301162            8.19504
    317       0.00000           0.304066            8.27404
    318       0.00000           0.306677            8.34511
    319       0.00000           0.306877            8.35055
    320       0.00000           0.311818            8.48500
    321       0.00000           0.315392            8.58226
    322       0.00000           0.318757            8.67381
    323       0.00000           0.321161            8.73925
    324       0.00000           0.324856            8.83978
    325       0.00000           0.325950            8.86956
    326       0.00000           0.330384            8.99020
    327       0.00000           0.332513            9.04815
    328       0.00000           0.334846            9.11164
    329       0.00000           0.335160            9.12017
    330       0.00000           0.335863            9.13931
    331       0.00000           0.337391            9.18088
    332       0.00000           0.340194            9.25714
    333       0.00000           0.340718            9.27142
    334       0.00000           0.343493            9.34692
    335       0.00000           0.343564            9.34884
    336       0.00000           0.347797            9.46405
    337       0.00000           0.349100            9.49949
    338       0.00000           0.349769            9.51771
    339       0.00000           0.352840            9.60125
    340       0.00000           0.355922            9.68514
    341       0.00000           0.360859            9.81948
    342       0.00000           0.362563            9.86584
    343       0.00000           0.365252            9.93902
    344       0.00000           0.365567            9.94758
    345       0.00000           0.369132           10.04459
    346       0.00000           0.370973           10.09470
    347       0.00000           0.377675           10.27706
    348       0.00000           0.380846           10.36334
    349       0.00000           0.386966           10.52989
    350       0.00000           0.390072           10.61440
    351       0.00000           0.392131           10.67043
    352       0.00000           0.393535           10.70864
    353       0.00000           0.394112           10.72433
    354       0.00000           0.395615           10.76525
    355       0.00000           0.397441           10.81493
    356       0.00000           0.397949           10.82875
    357       0.00000           0.405350           11.03014
    358       0.00000           0.405377           11.03087
    359       0.00000           0.407166           11.07955
    360       0.00000           0.410882           11.18067
    361       0.00000           0.415112           11.29577
    362       0.00000           0.418941           11.39997
    363       0.00000           0.430694           11.71979
    364       0.00000           0.430978           11.72752
    365       0.00000           0.430997           11.72804
    366       0.00000           0.432603           11.77173
    367       0.00000           0.435258           11.84397
    368       0.00000           0.436723           11.88385
    369       0.00000           0.436788           11.88562
    370       0.00000           0.445544           12.12387
    371       0.00000           0.448971           12.21711
    372       0.00000           0.452766           12.32039
    373       0.00000           0.455084           12.38348
    374       0.00000           0.455965           12.40743
    375       0.00000           0.456737           12.42846
    376       0.00000           0.458620           12.47970
    377       0.00000           0.462719           12.59122
    378       0.00000           0.465052           12.65470
    379       0.00000           0.466200           12.68595
    380       0.00000           0.469485           12.77535
    381       0.00000           0.477320           12.98853
    382       0.00000           0.479138           13.03801
    383       0.00000           0.480388           13.07202
    384       0.00000           0.481462           13.10124
    385       0.00000           0.486244           13.23137
    386       0.00000           0.492536           13.40259
    387       0.00000           0.496938           13.52237
    388       0.00000           0.503304           13.69561
    389       0.00000           0.506353           13.77857
    390       0.00000           0.513098           13.96211
    391       0.00000           0.515783           14.03518
    392       0.00000           0.516681           14.05959
    393       0.00000           0.527998           14.36757
    394       0.00000           0.536233           14.59163
    395       0.00000           0.537154           14.61671
    396       0.00000           0.542693           14.76742
    397       0.00000           0.545549           14.84513
    398       0.00000           0.547136           14.88832
    399       0.00000           0.565536           15.38902
    400       0.00000           0.574891           15.64357
    401       0.00000           0.578164           15.73263
    402       0.00000           0.594282           16.17122
    403       0.00000           0.595045           16.19200
    404       0.00000           0.602397           16.39204
    405       0.00000           0.611419           16.63755
    406       0.00000           0.613740           16.70072
    407       0.00000           0.626183           17.03931
    408       0.00000           0.651344           17.72397

  Current spin moment of the entire structure :
  | N = N_up - N_down :    1.00
  | S                 :    0.50
  | J                 :    2.00

  Highest occupied state (VBM) at     -5.23283388 eV
  | Occupation number:      1.00000000
  | Spin channel:        1

  Lowest unoccupied state (CBM) at    -5.10313800 eV
  | Occupation number:      0.00000000
  | Spin channel:        2

  Overall HOMO-LUMO gap:      0.12969588 eV.

  Total energy components:
  | Sum of eigenvalues            :       -1249.59685231 Ha      -34003.26041824 eV
  | XC energy correction          :        -316.77900106 Ha       -8619.99519947 eV
  | XC potential correction       :         405.62844538 Ha       11037.71159143 eV
  | Free-atom electrostatic energy:        -942.12213510 Ha      -25636.44766426 eV
  | Hartree energy correction     :         -46.69443670 Ha       -1270.62027096 eV
  | Entropy correction            :          -0.00000000 Ha          -0.00000000 eV
  | ---------------------------
  | Total energy                  :       -2149.56397979 Ha      -58492.61196149 eV
  | Total energy, T -> 0          :       -2149.56397979 Ha      -58492.61196149 eV  <-- do not rely on this value for anything but (periodic) metals
  | Electronic free energy        :       -2149.56397979 Ha      -58492.61196149 eV

  Derived energy quantities:
  | Kinetic energy                :        2159.98574117 Ha       58776.20251760 eV
  | Electrostatic energy          :       -3992.77071990 Ha     -108648.81927962 eV
  | Energy correction for multipole
  | error in Hartree potential    :           0.75411473 Ha          20.52050577 eV
  | Sum of eigenvalues per atom                           :        -369.60065672 eV
  | Total energy (T->0) per atom                          :        -635.78926045 eV  <-- do not rely on this value for anything but (periodic) metals
  | Electronic free energy per atom                       :        -635.78926045 eV
  End evaluation of scaled ZORA corrections.
  | Time for scaled ZORA corrections            :        1.519 s           1.534 s
------------------------------------------------------------

  Energy and forces in a compact form:
  | Total energy uncorrected      :         -0.584926119614935E+05 eV
  | Total energy corrected        :         -0.584926119614935E+05 eV  <-- do not rely on this value for anything but (periodic) metals
  | Electronic free energy        :         -0.584926119614935E+05 eV

  ------------------------------------ 
  Start decomposition of the XC Energy 
  ------------------------------------ 
  X and C from original XC functional choice 
  Hartree-Fock Energy :          0.000000000 Ha              0.000000000 eV
  X Energy            :       -304.177909075 Ha          -8277.102040249 eV
  C Energy            :        -12.601091989 Ha           -342.893159220 eV
  XC Energy w/o HF    :       -316.779001064 Ha          -8619.995199469 eV
  Total XC Energy     :       -316.779001064 Ha          -8619.995199469 eV
  ------------------------------------ 
  LDA X and C from self-consistent density 
  X Energy LDA        :       -273.923546089 Ha          -7453.838936225 eV
  C Energy LDA        :        -23.920084996 Ha           -650.898630088 eV
  ------------------------------------ 
  End decomposition of the XC Energy 
  ------------------------------------ 

------------------------------------------------------------

  --------------------------------------------------------
  Calculation of electronic coupling values with FO-DFT
  --------------------------------------------------------
  Collecting information for output...
  H_ab for hole-transfer
  States evaluated for Fragment 1: 93  to   93
  States evaluated for Fragment 2: 93  to   93
  Please remember, these states are numbered according to the fragments,
  NOT the combined system!

  st1 -> st2:     h_ab
  -----------  ----------   ---
  093 -> 093:        0.03   meV
  .         :       0.001   mH

  | Total time to calculate H_ab                :       10.468 s          10.620 s
  -------------------------------------------------------------------------------
  | Time for Loewdin orthogonalisation          :        7.733 s           7.707 s
  | Time for H_ab submatrix evaluation          :        0.002 s           0.001 s
  -------------------------------------------------------------------------------
  Leaving FO-DFT routine.

------------------------------------------------------------------------------
  Final output of selected total energy values:

  The following output summarizes some interesting total energy values
  at the end of a run (AFTER all relaxation, molecular dynamics, etc.).

  | Total energy of the DFT / Hartree-Fock s.c.f. calculation      :         -58492.611961494 eV
  | Final zero-broadening corrected energy (caution - metals only) :         -58492.611961494 eV
  | For reference only, the value of 1 Hartree used in FHI-aims is :             27.211384500 eV

  Before relying on these values, please be sure to understand exactly which
  total energy value is referred to by a given number. Different objects may
  all carry the same name 'total energy'. Definitions:

  Total energy of the DFT / Hartree-Fock s.c.f. calculation:
  | Note that this energy does not include ANY quantities calculated after the
  | s.c.f. cycle, in particular not ANY RPA, MP2, etc. many-body perturbation terms.
  | Scalar relativistic effects have been included in the 'scaled ZORA' approximation.

  Final zero-broadening corrected energy:
  | For metallic systems only, a broadening of the occupation numbers at the Fermi
  | level can be extrapolated back to zero broadening by an electron-gas inspired
  | formula. For all systems that are not real metals, this value can be
  | meaningless and should be avoided.

------------------------------------------------------------------------------
  Methods described in the following list of references were used in this FHI-aims run.
  If you publish the results, please make sure to cite these reference if they apply.
  FHI-aims is an academic code, and for our developers (often, Ph.D. students
  and postdocs), scientific credit in the community is essential.
  Thank you for helping us!

  For any use of FHI-aims, please cite:

    Volker Blum, Ralf Gehrke, Felix Hanke, Paula Havu, Ville Havu,
    Xinguo Ren, Karsten Reuter, and Matthias Scheffler
    'Ab initio molecular simulations with numeric atom-centered orbitals'
    Computer Physics Communications 180, 2175-2196 (2009)
    http://doi.org/10.1016/j.cpc.2009.06.022


  For calculations of electronic coupling values using the
  Fragment molecular orbital scheme (FO-DFT), please cite:

    Christoph Schober, Karsten Reuter, Harald Oberhofer
    'Critical analysis of fragment-orbital DFT schemes
    for the calculation of electronic coupling values'
    Journal of Chemical Physics, 144, 054103 (2016).


  For the real-space grid partitioning and parallelization used in this calculation, please cite:

    Ville Havu, Volker Blum, Paula Havu, and Matthias Scheffler,
    'Efficient O(N) integration for all-electron electronic structure calculation'
    'using numerically tabulated basis functions'
    Journal of Computational Physics 228, 8367-8379 (2009).
    http://doi.org/10.1016/j.jcp.2009.08.008

  Of course, there are many other important community references, e.g., those cited in the
  above references. Our list is limited to references that describe implementations in the
  FHI-aims code. The reason is purely practical (length of this list) - please credit others as well.

------------------------------------------------------------
          Leaving FHI-aims.
          Date     :  20241106, Time     :  130537.572

          Computational steps:
          | Number of self-consistency cycles          :            0
          | Number of SCF (re)initializations          :            1

          Detailed time accounting                     :  max(cpu_time)    wall_clock(cpu1)
          | Total time                                  :       32.362 s          32.483 s
          | Preparation time                            :        0.179 s           0.357 s
          | Boundary condition initalization            :        0.000 s           0.025 s
          | Grid partitioning                           :        3.013 s           3.041 s
          | Preloading free-atom quantities on grid     :        0.553 s           0.618 s
          | Free-atom superposition energy              :        0.220 s           0.246 s
          | Total time for integrations                 :        4.018 s           4.048 s
          | Total time for solution of K.-S. equations  :        1.155 s           1.187 s
          | Total time for density update               :        0.985 s           0.998 s
          | Total time for mixing                       :        0.052 s           0.096 s
          | Total time for Hartree multipole update     :        3.197 s           3.223 s
          | Total time for Hartree multipole sum        :        0.803 s           0.828 s
          | Total time for total energy evaluation      :        0.000 s           0.038 s
          | Total time for scaled ZORA corrections      :        1.519 s           1.534 s
          | Total time for FO-DFT calculation           :       10.444 s          10.594 s

          Partial memory accounting:
          | Residual value for overall tracked memory usage across tasks:     0.000000 MB (should be 0.000000 MB)
          | Peak values for overall tracked memory usage:
          |   Minimum:       17.990 MB (on task 39 after allocating zora_vector2)
          |   Maximum:       18.545 MB (on task  0 after allocating zora_vector2)
          |   Average:       18.366 MB
          | Largest tracked array allocation:
          |   Minimum:        6.001 MB (KS_eigenvector on task  0)
          |   Maximum:        6.001 MB (KS_eigenvector on task  0)
          |   Average:        6.001 MB
          Note:  These values currently only include a subset of arrays which are explicitly tracked.
          The "true" memory usage will be greater.

          Have a nice day.
------------------------------------------------------------
