------------------------------------------------------------
          Invoking FHI-aims ...

          When using FHI-aims, please cite the following reference:

            Volker Blum, Ralf Gehrke, Felix Hanke, Paula Havu,
            Ville Havu, Xinguo Ren, Karsten Reuter, and Matthias Scheffler,
            'Ab Initio Molecular Simulations with Numeric Atom-Centered Orbitals',
            Computer Physics Communications 180, 2175-2196 (2009)

          In addition, many other developments in FHI-aims are likely important for
          your particular application. A partial list of references is given at the end of
          this file. Thank you for giving credit to the authors of these developments.

          For any questions about FHI-aims, please visit our slack channel at

            https://fhi-aims.slack.com

          and our main development and support site at

            https://aims-git.rz-berlin.mpg.de .

          The latter site, in particular, has a wiki to collect information, as well
          as an issue tracker to log discussions, suggest improvements, and report issues
          or bugs. https://aims-git.rz-berlin.mpg.de is also the main development site
          of the project and all new and updated code versions can be obtained there.
          Please send an email to aims-coordinators@fhi-berlin.mpg.de and we will add
          you to these sites. They are for you and everyone is welcome there.

------------------------------------------------------------



  Date     :  20241106, Time     :  124104.874
  Time zero on CPU 1             :   0.355915000000000E+00  s.
  Internal wall clock time zero  :           500128864.874  s.

  FHI-aims created a unique identifier for this run for later identification
  aims_uuid : 654E0D79-740D-410A-AFF1-F3913940DC82

  Build configuration of the current instance of FHI-aims
  -------------------------------------------------------
  FHI-aims version      : 221103
  Commit number         : GITDIR-NOTFOUND
  CMake host system     : Linux-3.10.0-1160.59.1.el7.x86_64
  CMake version         : 3.17.5
  Fortran compiler      : /home/spack/spack/opt/spack/linux-centos7-broadwell/gcc-8.2.0/intel-oneapi-mpi-2021.13.1-tc3o22m5brhwlepjze7ymovtbug6ollk/mpi/2021.13/bin/mpiifort (Intel) version 20.2.8.20221119
  Fortran compiler flags: -O3 -ip -fp-model precise
  C compiler            : /home/spack/spack/opt/spack/linux-centos7-broadwell/gcc-8.2.0/intel-oneapi-compilers-2023.0.0-qdtyksft5ugoazragh7yusjezd4gp7hm/compiler/2023.0.0/linux/bin/intel64/icc (Intel) version 20.2.8.20221119
  C compiler flags      : -O3 -ip -fp-model precise -std=gnu99
  HIP compiler          :
  HIP compiler flags    :
  HIP GPU arch          :
  Using MPI
  Using ScaLAPACK
  Using LibXC
  Using i-PI
  Using RLSY
  Linking against: /home/spack/spack/opt/spack/linux-centos7-broadwell/gcc-8.2.0/intel-oneapi-mkl-2024.2.1-2ept5lpbp5bastej6jsrfm45y5ab2lpn/mkl/latest/lib/intel64/libmkl_intel_lp64.so
                   /home/spack/spack/opt/spack/linux-centos7-broadwell/gcc-8.2.0/intel-oneapi-mkl-2024.2.1-2ept5lpbp5bastej6jsrfm45y5ab2lpn/mkl/latest/lib/intel64/libmkl_sequential.so
                   /home/spack/spack/opt/spack/linux-centos7-broadwell/gcc-8.2.0/intel-oneapi-mkl-2024.2.1-2ept5lpbp5bastej6jsrfm45y5ab2lpn/mkl/latest/lib/intel64/libmkl_core.so
                   /home/spack/spack/opt/spack/linux-centos7-broadwell/gcc-8.2.0/intel-oneapi-mkl-2024.2.1-2ept5lpbp5bastej6jsrfm45y5ab2lpn/mkl/latest/lib/intel64/libmkl_blacs_intelmpi_lp64.so
                   /home/spack/spack/opt/spack/linux-centos7-broadwell/gcc-8.2.0/intel-oneapi-mkl-2024.2.1-2ept5lpbp5bastej6jsrfm45y5ab2lpn/mkl/latest/lib/intel64/libmkl_scalapack_lp64.so

  Using       56 parallel tasks.
  Task        0 on host f001 reporting.
  Task        1 on host f001 reporting.
  Task        2 on host f001 reporting.
  Task        3 on host f001 reporting.
  Task        4 on host f001 reporting.
  Task        5 on host f001 reporting.
  Task        6 on host f001 reporting.
  Task        7 on host f001 reporting.
  Task        8 on host f001 reporting.
  Task        9 on host f001 reporting.
  Task       10 on host f001 reporting.
  Task       11 on host f001 reporting.
  Task       12 on host f001 reporting.
  Task       13 on host f001 reporting.
  Task       14 on host f001 reporting.
  Task       15 on host f001 reporting.
  Task       16 on host f001 reporting.
  Task       17 on host f001 reporting.
  Task       18 on host f001 reporting.
  Task       19 on host f001 reporting.
  Task       20 on host f001 reporting.
  Task       21 on host f001 reporting.
  Task       22 on host f001 reporting.
  Task       23 on host f001 reporting.
  Task       24 on host f001 reporting.
  Task       25 on host f001 reporting.
  Task       26 on host f001 reporting.
  Task       27 on host f001 reporting.
  Task       28 on host f001 reporting.
  Task       29 on host f001 reporting.
  Task       30 on host f001 reporting.
  Task       31 on host f001 reporting.
  Task       32 on host f001 reporting.
  Task       33 on host f001 reporting.
  Task       34 on host f001 reporting.
  Task       35 on host f001 reporting.
  Task       36 on host f001 reporting.
  Task       37 on host f001 reporting.
  Task       38 on host f001 reporting.
  Task       39 on host f001 reporting.
  Task       40 on host f001 reporting.
  Task       41 on host f001 reporting.
  Task       42 on host f001 reporting.
  Task       43 on host f001 reporting.
  Task       44 on host f001 reporting.
  Task       45 on host f001 reporting.
  Task       46 on host f001 reporting.
  Task       47 on host f001 reporting.
  Task       48 on host f001 reporting.
  Task       49 on host f001 reporting.
  Task       50 on host f001 reporting.
  Task       51 on host f001 reporting.
  Task       52 on host f001 reporting.
  Task       53 on host f001 reporting.
  Task       54 on host f001 reporting.
  Task       55 on host f001 reporting.

  Performing system and environment tests:
  *** Environment variable OMP_NUM_THREADS is not set
  *** For performance reasons you might want to set it to 1
  | Checking for ScaLAPACK...
  | Testing pdtran()...
  | All pdtran() tests passed.

  Obtaining array dimensions for all initial allocations:
  
  -----------------------------------------------------------------------
  Parsing control.in (first pass over file, find array dimensions only).
  The contents of control.in will be repeated verbatim below
  unless switched off by setting 'verbatim_writeout .false.' .
  in the first line of control.in .
  -----------------------------------------------------------------------
  
  #=====================================================
  #FHI-aims file: ./control.in
  #Created using the Atomic Simulation Environment (ASE)
  #
  #List of parameters used to initialize the calculator:
  #=====================================================
  packed_matrix_format               index
  relativistic                       zora scalar 1e-12
  sc_accuracy_eev                    1E-2
  fo_dft                             fragment
  charge                             1
  sc_iter_limit                      200
  n_max_pulay                        10
  occupation_type                    gaussian 0.01
  sc_accuracy_etot                   1E-6
  xc                                 blyp
  mixer                              pulay
  sc_accuracy_rho                    1E-4
  spin                               collinear
  charge_mix_param                   0.5
  default_initial_moment             1
  #=======================================================
  
  ################################################################################
  #
  #  FHI-aims code project
  #  VB, Fritz-Haber Institut, 2009
  #
  #  Suggested "light" defaults for H atom (to be pasted into control.in file)
  #  Be sure to double-check any results obtained with these settings for post-processing,
  #  e.g., with the "tight" defaults and larger basis sets.
  #
  ################################################################################
    species        H
  #     global species definitions
      nucleus             1
      mass                1.00794
  #
      l_hartree           4
  #
      cut_pot             3.5  1.5  1.0
      basis_dep_cutoff    1e-4
  #
      radial_base         24 5.0
      radial_multiplier   1
      angular_grids       specified
        division   0.2421   50
        division   0.3822  110
        division   0.4799  194
        division   0.5341  302
  #      division   0.5626  434
  #      division   0.5922  590
  #      division   0.6542  770
  #      division   0.6868 1202
  #      outer_grid  770
        outer_grid  302
  ################################################################################
  #
  #  Definition of "minimal" basis
  #
  ################################################################################
  #     valence basis states
      valence      1  s   1.
  #     ion occupancy
      ion_occ      1  s   0.5
  ################################################################################
  #
  #  Suggested additional basis functions. For production calculations,
  #  uncomment them one after another (the most important basis functions are
  #  listed first).
  #
  #  Basis constructed for dimers: 0.5 A, 0.7 A, 1.0 A, 1.5 A, 2.5 A
  #
  ################################################################################
  #  "First tier" - improvements: -1014.90 meV to -62.69 meV
       hydro 2 s 2.1
       hydro 2 p 3.5
  #  "Second tier" - improvements: -12.89 meV to -1.83 meV
  #     hydro 1 s 0.85
  #     hydro 2 p 3.7
  #     hydro 2 s 1.2
  #     hydro 3 d 7
  #  "Third tier" - improvements: -0.25 meV to -0.12 meV
  #     hydro 4 f 11.2
  #     hydro 3 p 4.8
  #     hydro 4 d 9
  #     hydro 3 s 3.2
  ################################################################################
  #
  #  FHI-aims code project
  #  VB, Fritz-Haber Institut, 2009
  #
  #  Suggested "light" defaults for C atom (to be pasted into control.in file)
  #  Be sure to double-check any results obtained with these settings for post-processing,
  #  e.g., with the "tight" defaults and larger basis sets.
  #
  ################################################################################
    species        C
  #     global species definitions
      nucleus             6
      mass                12.0107
  #
      l_hartree           4
  #
      cut_pot             3.5  1.5  1.0
      basis_dep_cutoff    1e-4
  #
      radial_base         34 5.0
      radial_multiplier   1
      angular_grids specified
        division   0.3326   50
        division   0.5710  110
        division   0.7727  194
        division   0.8772  302
  #      division   0.9334  434
  #      division   0.9625  590
  #      division   0.9924  770
  #      division   1.0230  974
  #      division   1.4589 1202
  #     outer_grid  974
       outer_grid 302
  ################################################################################
  #
  #  Definition of "minimal" basis
  #
  ################################################################################
  #     valence basis states
      valence      2  s   2.
      valence      2  p   2.
  #     ion occupancy
      ion_occ      2  s   1.
      ion_occ      2  p   1.
  ################################################################################
  #
  #  Suggested additional basis functions. For production calculations,
  #  uncomment them one after another (the most important basis functions are
  #  listed first).
  #
  #  Constructed for dimers: 1.0 A, 1.25 A, 1.5 A, 2.0 A, 3.0 A
  #
  ################################################################################
  #  "First tier" - improvements: -1214.57 meV to -155.61 meV
       hydro 2 p 1.7
       hydro 3 d 6
       hydro 2 s 4.9
  #  "Second tier" - improvements: -67.75 meV to -5.23 meV
  #     hydro 4 f 9.8
  #     hydro 3 p 5.2
  #     hydro 3 s 4.3
  #     hydro 5 g 14.4
  #     hydro 3 d 6.2
  #  "Third tier" - improvements: -2.43 meV to -0.60 meV
  #     hydro 2 p 5.6
  #     hydro 2 s 1.4
  #     hydro 3 d 4.9
  #     hydro 4 f 11.2
  #  "Fourth tier" - improvements: -0.39 meV to -0.18 meV
  #     hydro 2 p 2.1
  #     hydro 5 g 16.4
  #     hydro 4 d 13.2
  #     hydro 3 s 13.6
  #     hydro 4 f 17.6
  #  Further basis functions - improvements: -0.08 meV and below
  #     hydro 3 s 2
  #     hydro 3 p 6
  #     hydro 4 d 20
  
  -----------------------------------------------------------------------
  Completed first pass over input file control.in .
  -----------------------------------------------------------------------
  
  
  -----------------------------------------------------------------------
  Parsing geometry.in (first pass over file, find array dimensions only).
  The contents of geometry.in will be repeated verbatim below
  unless switched off by setting 'verbatim_writeout .false.' .
  in the first line of geometry.in .
  -----------------------------------------------------------------------
  
  #=======================================================
  #FHI-aims file: ./geometry.in
  #Created using the Atomic Simulation Environment (ASE)
  #=======================================================
  atom 40.1428620100000018 24.6408166441903873 21.1718135008135242 H
  atom 40.8897956699999980 22.3015178632340678 20.8772070003797268 H
  atom 42.0686900200000053 20.3221204639631949 21.7553653467919226 H
  atom 40.6862433099999947 24.1401651065340417 21.9695834477991276 C
  atom 41.0928775699999989 22.8297166400775176 21.8085802027503739 C
  atom 40.6797352800000027 25.8865240369193579 23.2225102478761478 H
  atom 43.3557901700000059 19.2067562329857466 23.5782572211132724 H
  atom 43.8788632800000045 20.4318032086146779 25.6556746192529062 H
  atom 43.8254660700000045 22.4323644849404964 27.0195600551581840 H
  atom 43.7058908200000005 24.9626358873010759 28.3718967350894999 H
  atom 41.4409395600000039 27.0518877946788479 25.2695838558096888 H
  atom 43.7277672099999961 26.8284793303754689 29.5652681857321724 H
  atom 40.9901604699999993 24.8455034119923681 23.1396309402983071 C
  atom 41.7168643500000016 24.2575936482347991 24.1794718703459637 C
  atom 41.8162098199999974 22.1790539817258967 22.8373252692152029 C
  atom 42.2789072300000015 20.8438037170337545 22.6894559035093835 C
  atom 43.0012985599999951 20.2292463726381051 23.6937447808528852 C
  atom 43.2978451799999959 20.9215827004896333 24.8764732603038681 C
  atom 42.8817233099999982 22.2398701704749300 25.0637442640384940 C
  atom 43.2428797700000018 22.9511126032349146 26.2573421608767354 C
  atom 42.8867415499999964 24.2613573481804359 26.4122313586451583 C
  atom 43.1520809900000017 25.1944444314711440 27.4686028609692698 C
  atom 42.5920767700000056 26.4120228972911981 27.1114972105587384 C
  atom 41.9570341800000008 26.2596778939356312 25.8030910925675876 C
  atom 42.1245179400000040 22.8932194081977372 24.0354520899647994 C
  atom 42.1202837999999957 24.9605986191083389 25.3744284443576120 C
  atom 42.6202259599999991 27.6462613704467586 27.8870754303786939 C
  atom 43.2457809400000031 27.7117357088846035 29.1486071858872933 C
  atom 43.7845360499999998 28.8685028190056627 30.8410660515615476 H
  atom 41.5852923700000048 30.8875196959377014 27.7174672298983573 H
  atom 41.5284451200000007 28.8413386525913999 26.4450660570024993 H
  atom 43.9821292499999998 30.5623828657880807 31.7796855321903671 H
  atom 43.9938907500000056 32.6096968256241411 33.0978288365909350 H
  atom 42.7427807899999976 34.6280662183812922 32.3251944173133694 H
  atom 41.4722251499999999 34.5249869290219706 30.1712382050717913 H
  atom 41.4425861699999984 32.4807088517011664 28.8512833311066785 H
  atom 43.2761256099999940 28.8883009933495494 29.8800283975715111 C
  atom 42.6810721199999961 30.0784091092028376 29.4076616336169359 C
  atom 42.0595160499999992 30.0084343191929577 28.1472621090861743 C
  atom 42.0279168200000015 28.8306414307017427 27.4115384196861669 C
  atom 42.6997336999999959 31.3285499468914139 30.2015819952778841 C
  atom 43.4087169200000034 31.4119491997827254 31.4166922806950737 C
  atom 43.4197727300000054 32.5805919806061084 32.1723432353050498 C
  atom 42.7234135200000011 33.7102515533245892 31.7382458784014467 C
  atom 42.0174098800000024 33.6538329537697081 30.5351372413493571 C
  atom 42.0070597600000042 32.4821691007454660 29.7810714101083533 C
  
  -----------------------------------------------------------------------
  Completed first pass over input file geometry.in .
  -----------------------------------------------------------------------
  

  Basic array size parameters:
  | Number of species                 :        2
  | Number of atoms                   :       46
  | Max. basis fn. angular momentum   :        2
  | Max. atomic/ionic basis occupied n:        2
  | Max. number of basis fn. types    :        2
  | Max. radial fns per species/type  :        3
  | Max. logarithmic grid size        :     1277
  | Max. radial integration grid size :       34
  | Max. angular integration grid size:      302
  | Max. angular grid division number :        8
  | Radial grid for Hartree potential :     1277
  | Number of spin channels           :        2

------------------------------------------------------------
          Reading file control.in.
------------------------------------------------------------
  Using packed matrix format  2
  Scalar relativistic treatment of kinetic energy: ZORA.
  Threshold value for ZORA:   0.100000E-11
  Convergence accuracy of sum of eigenvalues:  0.1000E-01
  Charged system requested: Charge =   0.100000E+01.
  Maximum number of s.-c. iterations  :   200
  Pulay mixing - number of memorized iterations:   10
  Occupation type: Gaussian broadening, width =   0.100000E-01 eV.
  Convergence accuracy of total energy:  0.1000E-05
  XC: Using BLYP gradient-corrected functional.
  Using pulay charge density mixing.
  Convergence accuracy of self-consistent charge density:  0.1000E-03
  Spin treatment: Spin density functional theory - collinear spins.
  Charge density mixing - mixing parameter:     0.5000
  Initial spin moment per atom:   1.0000
 
  Reading configuration options for species H                   .
  | Found nuclear charge :   1.0000
  | Found atomic mass :    1.00794000000000      amu
  | Found l_max for Hartree potential  :   4
  | Found cutoff potl. onset [A], width [A], scale factor :    3.50000    1.50000    1.00000
  | Threshold for basis-dependent cutoff potential is   0.100000E-03
  | Found data for basic radial integration grid :    24 points, outermost radius =    5.000 A
  | Found multiplier for basic radial grid :   1
  | Found angular grid specification: user-specified.
  | Specified grid contains     5 separate shells.
  | Check grid settings after all constraints further below.
  | Found free-atom valence shell :  1 s   1.000
  | No ionic wave fns used. Skipping ion_occ.
  | Found hydrogenic basis function :  2 s   2.100
  | Found hydrogenic basis function :  2 p   3.500
  Species H                   : Missing cutoff potential type.
  Defaulting to exp(1/x)/(1-x)^2 type cutoff potential.
  Species H : No 'logarithmic' tag. Using default grid for free atom:
  | Default logarithmic grid data [bohr] : 0.1000E-03 0.1000E+03 0.1012E+01
  Species H : On-site basis accuracy parameter (for Gram-Schmidt orthonormalisation) not specified.
  Using default value basis_acc =  0.1000000E-03.
  Species H                   : Using default innermost maximum threshold i_radial=  2 for radial functions.
  Species H                   : Default cutoff onset for free atom density etc. : 0.35000000E+01 AA.
  Species H                   : Basic radial grid will be enhanced according to radial_multiplier =   1, to contain    24 grid points.
 
  Reading configuration options for species C                   .
  | Found nuclear charge :   6.0000
  | Found atomic mass :    12.0107000000000      amu
  | Found l_max for Hartree potential  :   4
  | Found cutoff potl. onset [A], width [A], scale factor :    3.50000    1.50000    1.00000
  | Threshold for basis-dependent cutoff potential is   0.100000E-03
  | Found data for basic radial integration grid :    34 points, outermost radius =    5.000 A
  | Found multiplier for basic radial grid :   1
  | Found angular grid specification: user-specified.
  | Specified grid contains     5 separate shells.
  | Check grid settings after all constraints further below.
  | Found free-atom valence shell :  2 s   2.000
  | Found free-atom valence shell :  2 p   2.000
  | No ionic wave fns used. Skipping ion_occ.
  | No ionic wave fns used. Skipping ion_occ.
  | Found hydrogenic basis function :  2 p   1.700
  | Found hydrogenic basis function :  3 d   6.000
  | Found hydrogenic basis function :  2 s   4.900
  Species C                   : Missing cutoff potential type.
  Defaulting to exp(1/x)/(1-x)^2 type cutoff potential.
  Species C : No 'logarithmic' tag. Using default grid for free atom:
  | Default logarithmic grid data [bohr] : 0.1000E-03 0.1000E+03 0.1012E+01
  Species C : On-site basis accuracy parameter (for Gram-Schmidt orthonormalisation) not specified.
  Using default value basis_acc =  0.1000000E-03.
  Species C                   : Using default innermost maximum threshold i_radial=  2 for radial functions.
  Species C                   : Default cutoff onset for free atom density etc. : 0.35000000E+01 AA.
  Species C                   : Basic radial grid will be enhanced according to radial_multiplier =   1, to contain    34 grid points.
 
  Finished reading input file 'control.in'.
 
------------------------------------------------------------


------------------------------------------------------------
          Reading geometry description geometry.in.
------------------------------------------------------------
  | The smallest distance between any two atoms is         1.08461069 AA.
  | The first atom of this pair is atom number                     10 .
  | The second atom of this pair is atom number                    22 .
  Input structure read successfully.
  The structure contains       46 atoms,  and a total of        185.000 electrons.

  Input geometry:
  | No unit cell requested.
  | Atomic structure:
  |       Atom                x [A]            y [A]            z [A]
  |    1: Species H            40.14286201       24.64081664       21.17181350
  |    2: Species H            40.88979567       22.30151786       20.87720700
  |    3: Species H            42.06869002       20.32212046       21.75536535
  |    4: Species C            40.68624331       24.14016511       21.96958345
  |    5: Species C            41.09287757       22.82971664       21.80858020
  |    6: Species H            40.67973528       25.88652404       23.22251025
  |    7: Species H            43.35579017       19.20675623       23.57825722
  |    8: Species H            43.87886328       20.43180321       25.65567462
  |    9: Species H            43.82546607       22.43236448       27.01956006
  |   10: Species H            43.70589082       24.96263589       28.37189674
  |   11: Species H            41.44093956       27.05188779       25.26958386
  |   12: Species H            43.72776721       26.82847933       29.56526819
  |   13: Species C            40.99016047       24.84550341       23.13963094
  |   14: Species C            41.71686435       24.25759365       24.17947187
  |   15: Species C            41.81620982       22.17905398       22.83732527
  |   16: Species C            42.27890723       20.84380372       22.68945590
  |   17: Species C            43.00129856       20.22924637       23.69374478
  |   18: Species C            43.29784518       20.92158270       24.87647326
  |   19: Species C            42.88172331       22.23987017       25.06374426
  |   20: Species C            43.24287977       22.95111260       26.25734216
  |   21: Species C            42.88674155       24.26135735       26.41223136
  |   22: Species C            43.15208099       25.19444443       27.46860286
  |   23: Species C            42.59207677       26.41202290       27.11149721
  |   24: Species C            41.95703418       26.25967789       25.80309109
  |   25: Species C            42.12451794       22.89321941       24.03545209
  |   26: Species C            42.12028380       24.96059862       25.37442844
  |   27: Species C            42.62022596       27.64626137       27.88707543
  |   28: Species C            43.24578094       27.71173571       29.14860719
  |   29: Species H            43.78453605       28.86850282       30.84106605
  |   30: Species H            41.58529237       30.88751970       27.71746723
  |   31: Species H            41.52844512       28.84133865       26.44506606
  |   32: Species H            43.98212925       30.56238287       31.77968553
  |   33: Species H            43.99389075       32.60969683       33.09782884
  |   34: Species H            42.74278079       34.62806622       32.32519442
  |   35: Species H            41.47222515       34.52498693       30.17123821
  |   36: Species H            41.44258617       32.48070885       28.85128333
  |   37: Species C            43.27612561       28.88830099       29.88002840
  |   38: Species C            42.68107212       30.07840911       29.40766163
  |   39: Species C            42.05951605       30.00843432       28.14726211
  |   40: Species C            42.02791682       28.83064143       27.41153842
  |   41: Species C            42.69973370       31.32854995       30.20158200
  |   42: Species C            43.40871692       31.41194920       31.41669228
  |   43: Species C            43.41977273       32.58059198       32.17234324
  |   44: Species C            42.72341352       33.71025155       31.73824588
  |   45: Species C            42.01740988       33.65383295       30.53513724
  |   46: Species C            42.00705976       32.48216910       29.78107141

  Initial moments and charges:
  |  Atom   Moment         Charge        Species
  |     1   0.100000E+01   0.000000E+00   H
  |     2   0.100000E+01   0.000000E+00   H
  |     3   0.100000E+01   0.000000E+00   H
  |     4   0.100000E+01   0.000000E+00   C
  |     5   0.100000E+01   0.000000E+00   C
  |     6   0.100000E+01   0.000000E+00   H
  |     7   0.100000E+01   0.000000E+00   H
  |     8   0.100000E+01   0.000000E+00   H
  |     9   0.100000E+01   0.000000E+00   H
  |    10   0.100000E+01   0.000000E+00   H
  |    11   0.100000E+01   0.000000E+00   H
  |    12   0.100000E+01   0.000000E+00   H
  |    13   0.100000E+01   0.000000E+00   C
  |    14   0.100000E+01   0.000000E+00   C
  |    15   0.100000E+01   0.000000E+00   C
  |    16   0.100000E+01   0.000000E+00   C
  |    17   0.100000E+01   0.000000E+00   C
  |    18   0.100000E+01   0.000000E+00   C
  |    19   0.100000E+01   0.000000E+00   C
  |    20   0.100000E+01   0.000000E+00   C
  |    21   0.100000E+01   0.000000E+00   C
  |    22   0.100000E+01   0.000000E+00   C
  |    23   0.100000E+01   0.000000E+00   C
  |    24   0.100000E+01   0.000000E+00   C
  |    25   0.100000E+01   0.000000E+00   C
  |    26   0.100000E+01   0.000000E+00   C
  |    27   0.100000E+01   0.000000E+00   C
  |    28   0.100000E+01   0.000000E+00   C
  |    29   0.100000E+01   0.000000E+00   H
  |    30   0.100000E+01   0.000000E+00   H
  |    31   0.100000E+01   0.000000E+00   H
  |    32   0.100000E+01   0.000000E+00   H
  |    33   0.100000E+01   0.000000E+00   H
  |    34   0.100000E+01   0.000000E+00   H
  |    35   0.100000E+01   0.000000E+00   H
  |    36   0.100000E+01   0.000000E+00   H
  |    37   0.100000E+01   0.000000E+00   C
  |    38   0.100000E+01   0.000000E+00   C
  |    39   0.100000E+01   0.000000E+00   C
  |    40   0.100000E+01   0.000000E+00   C
  |    41   0.100000E+01   0.000000E+00   C
  |    42   0.100000E+01   0.000000E+00   C
  |    43   0.100000E+01   0.000000E+00   C
  |    44   0.100000E+01   0.000000E+00   C
  |    45   0.100000E+01   0.000000E+00   C
  |    46   0.100000E+01   0.000000E+00   C

 
  Finished reading input file 'geometry.in'.
 

 
  Consistency checks for stacksize environment parameter are next.
 
  | Maximum stacksize for task 0: unlimited
  | Maximum stacksize for task 1: unlimited
  | Maximum stacksize for task 2: unlimited
  | Maximum stacksize for task 3: unlimited
  | Maximum stacksize for task 4: unlimited
  | Maximum stacksize for task 5: unlimited
  | Maximum stacksize for task 6: unlimited
  | Maximum stacksize for task 7: unlimited
  | Maximum stacksize for task 8: unlimited
  | Maximum stacksize for task 9: unlimited
  | Maximum stacksize for task 10: unlimited
  | Maximum stacksize for task 11: unlimited
  | Maximum stacksize for task 12: unlimited
  | Maximum stacksize for task 13: unlimited
  | Maximum stacksize for task 14: unlimited
  | Maximum stacksize for task 15: unlimited
  | Maximum stacksize for task 16: unlimited
  | Maximum stacksize for task 17: unlimited
  | Maximum stacksize for task 18: unlimited
  | Maximum stacksize for task 19: unlimited
  | Maximum stacksize for task 20: unlimited
  | Maximum stacksize for task 21: unlimited
  | Maximum stacksize for task 22: unlimited
  | Maximum stacksize for task 23: unlimited
  | Maximum stacksize for task 24: unlimited
  | Maximum stacksize for task 25: unlimited
  | Maximum stacksize for task 26: unlimited
  | Maximum stacksize for task 27: unlimited
  | Maximum stacksize for task 28: unlimited
  | Maximum stacksize for task 29: unlimited
  | Maximum stacksize for task 30: unlimited
  | Maximum stacksize for task 31: unlimited
  | Maximum stacksize for task 32: unlimited
  | Maximum stacksize for task 33: unlimited
  | Maximum stacksize for task 34: unlimited
  | Maximum stacksize for task 35: unlimited
  | Maximum stacksize for task 36: unlimited
  | Maximum stacksize for task 37: unlimited
  | Maximum stacksize for task 38: unlimited
  | Maximum stacksize for task 39: unlimited
  | Maximum stacksize for task 40: unlimited
  | Maximum stacksize for task 41: unlimited
  | Maximum stacksize for task 42: unlimited
  | Maximum stacksize for task 43: unlimited
  | Maximum stacksize for task 44: unlimited
  | Maximum stacksize for task 45: unlimited
  | Maximum stacksize for task 46: unlimited
  | Maximum stacksize for task 47: unlimited
  | Maximum stacksize for task 48: unlimited
  | Maximum stacksize for task 49: unlimited
  | Maximum stacksize for task 50: unlimited
  | Maximum stacksize for task 51: unlimited
  | Maximum stacksize for task 52: unlimited
  | Maximum stacksize for task 53: unlimited
  | Maximum stacksize for task 54: unlimited
  | Maximum stacksize for task 55: unlimited
  | Current stacksize for task 0: unlimited
  | Current stacksize for task 1: unlimited
  | Current stacksize for task 2: unlimited
  | Current stacksize for task 3: unlimited
  | Current stacksize for task 4: unlimited
  | Current stacksize for task 5: unlimited
  | Current stacksize for task 6: unlimited
  | Current stacksize for task 7: unlimited
  | Current stacksize for task 8: unlimited
  | Current stacksize for task 9: unlimited
  | Current stacksize for task 10: unlimited
  | Current stacksize for task 11: unlimited
  | Current stacksize for task 12: unlimited
  | Current stacksize for task 13: unlimited
  | Current stacksize for task 14: unlimited
  | Current stacksize for task 15: unlimited
  | Current stacksize for task 16: unlimited
  | Current stacksize for task 17: unlimited
  | Current stacksize for task 18: unlimited
  | Current stacksize for task 19: unlimited
  | Current stacksize for task 20: unlimited
  | Current stacksize for task 21: unlimited
  | Current stacksize for task 22: unlimited
  | Current stacksize for task 23: unlimited
  | Current stacksize for task 24: unlimited
  | Current stacksize for task 25: unlimited
  | Current stacksize for task 26: unlimited
  | Current stacksize for task 27: unlimited
  | Current stacksize for task 28: unlimited
  | Current stacksize for task 29: unlimited
  | Current stacksize for task 30: unlimited
  | Current stacksize for task 31: unlimited
  | Current stacksize for task 32: unlimited
  | Current stacksize for task 33: unlimited
  | Current stacksize for task 34: unlimited
  | Current stacksize for task 35: unlimited
  | Current stacksize for task 36: unlimited
  | Current stacksize for task 37: unlimited
  | Current stacksize for task 38: unlimited
  | Current stacksize for task 39: unlimited
  | Current stacksize for task 40: unlimited
  | Current stacksize for task 41: unlimited
  | Current stacksize for task 42: unlimited
  | Current stacksize for task 43: unlimited
  | Current stacksize for task 44: unlimited
  | Current stacksize for task 45: unlimited
  | Current stacksize for task 46: unlimited
  | Current stacksize for task 47: unlimited
  | Current stacksize for task 48: unlimited
  | Current stacksize for task 49: unlimited
  | Current stacksize for task 50: unlimited
  | Current stacksize for task 51: unlimited
  | Current stacksize for task 52: unlimited
  | Current stacksize for task 53: unlimited
  | Current stacksize for task 54: unlimited
  | Current stacksize for task 55: unlimited
 
  Consistency checks for the contents of control.in are next.
 
  MPI_IN_PLACE appears to work with this MPI implementation.
  | Keeping use_mpi_in_place .true. (see manual).
  Target number of points in a grid batch is not set. Defaulting to  100
  Method for grid partitioning is not set. Defaulting to parallel hash+maxmin partitioning.
  Batch size limit is not set. Defaulting to    200
  By default, will store active basis functions for each batch.
  If in need of memory, prune_basis_once .false. can be used to disable this option.
  communication_type for Hartree potential was not specified.
  Defaulting to calc_hartree .
  Pulay mixer: Number of initial linear mixing iterations not set.
  Defaulting to    0 iterations.
  Work space size for distributed Hartree potential not set.
  Defaulting to   0.200000E+03 MB.
  Mixing parameter for spin density mixing has not been set.
  Using charge_mix_param as default:     0.5000.
  Algorithm-dependent basis array size parameters:
  | n_max_pulay                         :       10
  Presetting      1001 iterations before the initial mixing cycle
  is restarted anyway using the sc_init_iter criterion / keyword.
  Presetting a factor      1.000 between actual scf density residual
  and density convergence criterion sc_accuracy_rho below which sc_init_iter
  takes no effect.
  Calculation of forces was not defined in control.in. No forces will be calculated.
  Geometry relaxation not requested: no relaxation will be performed.
  No accuracy limit for integral partition fn. given. Defaulting to  0.1000E-14.
  No threshold value for u(r) in integrations given. Defaulting to  0.1000E-05.
  No accuracy for occupation numbers given. Defaulting to  0.1000E-12.
  No threshold value for occupation numbers given. Defaulting to  0.0000E+00.
  No accuracy for fermi level given. Defaulting to  0.1000E-19.
  Maximum # of iterations to find E_F not set. Defaulting to  200.
  Preferred method for the eigenvalue solver ('KS_method') not specified in 'control.in'.
  Calling BLACS routine to test compilation state
  Since ScaLAPACK support is enabled, defaulting to ELPA (via ELSI).
  Will not use alltoall communication since running on < 1024 CPUs.
  Threshold for basis singularities not set.
  Default threshold for basis singularities:  0.1000E-04
  partition_type (choice of integration weights) for integrals was not specified.
  | Using a version of the partition function of Stratmann and coworkers ('stratmann_sparse').
  | At each grid point, the set of atoms used to build the partition table is smoothly restricted to
  | only those atoms whose free-atom density would be non-zero at that grid point.
  Partitioning for Hartree potential was not defined. Using partition_type for integrals.
  | Adjusted default value of keyword multip_moments_threshold to:       0.10000000E-11
  | This value may affect high angular momentum components of the Hartree potential in periodic systems.
  No q(lm)/r^(l+1) cutoff set for long-range Hartree potential.
  | Using default value of  0.100000E-09 .
  | Verify using the multipole_threshold keyword.
  Defaulting to new monopole extrapolation.
  Density update method: automatic selection selected.
  Charge integration errors on the 3D integration grid will be compensated
  by explicit normalization and distribution of residual charges.
  Use the "compensate_multipole_errors" flag to change this behaviour.
  Set 'collect_eigenvectors' to be '.true.' for use_density_matrix .false.
  Set 'collect_eigenvectors' to be '.true.' for fo_dft.
 
  Consistency checks for the contents of geometry.in are next.
 
 * Warning: Initial charge and total charge of the system are inconsistent.
 * Selected charge in control.in:     1.0000* Sum of initial charges in geometry.in:     0.0000
  Number of empty states per atom not set in control.in - providing a guess from actual geometry.
  | Total number of empty states used during s.c.f. cycle:      111
  If you use a very high smearing, use empty_states (per atom!) in control.in to increase this value.

  Structure-dependent array size parameters: 
  | Number of distinct atom types in initial rho :        2
  | Maximum number of distinct radial functions  :        9
  | Maximum number of basis functions            :      482
  | Number of Kohn-Sham states (occupied + empty):      204
------------------------------------------------------------

------------------------------------------------------------
          Preparing all fixed parts of the calculation.
------------------------------------------------------------
  Determining machine precision:
    2.225073858507201E-308
  Setting up grids for atomic and cluster calculations.

  Creating wave function, potential, and density for free atoms.
  Runtime choices for atomic solver:
  | atomic solver xc        : BLYP
  | compute density gradient: 1
  | compute kinetic density : F

  Species: H

  List of occupied orbitals and eigenvalues:
    n    l              occ      energy [Ha]    energy [eV]
    1    0           1.0000        -0.238990        -6.5032


  Species: C

  List of occupied orbitals and eigenvalues:
    n    l              occ      energy [Ha]    energy [eV]
    1    0           2.0000       -10.067089      -273.9394
    2    0           2.0000        -0.497842       -13.5470
    2    1           2.0000        -0.189944        -5.1687

  Spin-polarized or charged system:
  Charge density initialized according to selected moments and charges.

  Creating spin-polarized density from free atoms.

  Species: H
  Charge:   0.000000
  Moment:   1.000000

  List of occupied orbitals and eigenvalues:
    n    l      energy [Ha]    energy [eV]    occupation
  Spin-up
    1    0        -0.271622        -7.3912     1.00000000
  Spin-down
    1    0         0.010752         0.2926     0.00000000


  Species: C
  Charge:   0.000000
  Moment:   1.000000

  List of occupied orbitals and eigenvalues:
    n    l      energy [Ha]    energy [eV]    occupation
  Spin-up
    1    0       -10.052093      -273.5314     1.00000000
    2    0        -0.512942       -13.9579     1.00000000
    2    1        -0.202181        -5.5016     1.50000000
  Spin-down
    1    0       -10.033506      -273.0256     1.00000000
    2    0        -0.456462       -12.4210     1.00000000
    2    1        -0.151185        -4.1140     0.50000000


  Adding cutoff potential to free-atom effective potential.
  Creating fixed part of basis set: Ionic, confined, hydrogenic.
 
  H                    hydrogenic:
 
  List of hydrogenic basis orbitals: 
    n    l      effective z      eigenvalue [eV]  inner max. [A]     outer max. [A]     outer radius [A]   
    2    0         2.100000       -14.9728           0.193243           1.317208           4.583499
    2    1         3.500000       -41.6669           0.602369           0.602369           3.723403
 
 
  C                    hydrogenic:
 
  List of hydrogenic basis orbitals: 
    n    l      effective z      eigenvalue [eV]  inner max. [A]     outer max. [A]     outer radius [A]   
    2    1         1.700000        -9.7616           1.230570           1.230570           4.607917
    3    2         6.000000       -54.4224           0.792453           0.792453           3.883070
    2    0         4.900000       -81.6679           0.082559           0.562749           3.078220
 
  Creating atomic-like basis functions for current effective potential.

  Species H                   :

  List of atomic basis orbitals and eigenvalues:
    n    l      energy [Ha]    energy [eV]    outer radius [A]
    1    0        -0.238990        -6.5032       4.527807


  Species C                   :

  List of atomic basis orbitals and eigenvalues:
    n    l      energy [Ha]    energy [eV]    outer radius [A]
    1    0       -10.067089      -273.9394       1.934409
    2    0        -0.497842       -13.5470       4.496620
    2    1        -0.189944        -5.1687       4.551928

  Assembling full basis from fixed parts.
  | Species H :   atomic orbital   1 s accepted.
  | Species H :    hydro orbital   2 s accepted.
  | Species H :    hydro orbital   2 p accepted.
  | Species C :   atomic orbital   1 s accepted.
  | Species C :    hydro orbital   2 s accepted.
  | Species C :   atomic orbital   2 s accepted.
  | Species C :   atomic orbital   2 p accepted.
  | Species C :    hydro orbital   2 p accepted.
  | Species C :    hydro orbital   3 d accepted.
 
  Basis size parameters after reduction:
  | Total number of radial functions:        9
  | Total number of basis functions :      482
 
  Per-task memory consumption for arrays in subroutine allocate_ext:
  |           2.218912MB.
  Testing on-site integration grid accuracy.
  |  Species  Function  <phi|h_atom|phi> (log., in eV)  <phi|h_atom|phi> (rad., in eV)
           1        1                 -6.5044527913                 -6.5032312304
           1        2                 13.5128264660                 13.5186953162
           1        3                 25.3317713414                 25.3319138181
           2        4               -273.9394205892               -273.9393868748
           2        5                -10.6145279052                -10.6144887969
           2        6                 17.1727568254                 17.1688026287
           2        7                 -5.1704957803                 -5.1720974370
           2        8                  8.7521213222                  8.7293892811
           2        9                 27.7044268360                 27.7044408576

  Preparing densities etc. for the partition functions (integrals / Hartree potential).

  Preparations completed.
  max(cpu_time)          :      0.179 s.
  Wall clock time (cpu1) :      0.348 s.
------------------------------------------------------------

  Initializing index lists of integration centers etc. from given atomic structure:
  | Number of centers in hartree potential         :        46
  | Number of centers in hartree multipole         :        46
  | Number of centers in electron density summation:        46
  | Number of centers in basis integrals           :        46
  | Number of centers in integrals                 :        46
  | Number of centers in hamiltonian               :        46

------------------------------------------------------------
          Begin self-consistency loop: Initialization.

          Date     :  20241106, Time     :  124105.903
------------------------------------------------------------
  * Using 56 tasks for Scalapack Eigenvalue solver.
  Detailed listing of tasks and assigned k-points:
  (for non-periodic systems, the "k-point" denotes an internal label only)
   Task     0 k-point     1 on f001
   Task     1 k-point     1 on f001
   Task     2 k-point     1 on f001
   Task     3 k-point     1 on f001
   Task     4 k-point     1 on f001
   Task     5 k-point     1 on f001
   Task     6 k-point     1 on f001
   Task     7 k-point     1 on f001
   Task     8 k-point     1 on f001
   Task     9 k-point     1 on f001
   Task    10 k-point     1 on f001
   Task    11 k-point     1 on f001
   Task    12 k-point     1 on f001
   Task    13 k-point     1 on f001
   Task    14 k-point     1 on f001
   Task    15 k-point     1 on f001
   Task    16 k-point     1 on f001
   Task    17 k-point     1 on f001
   Task    18 k-point     1 on f001
   Task    19 k-point     1 on f001
   Task    20 k-point     1 on f001
   Task    21 k-point     1 on f001
   Task    22 k-point     1 on f001
   Task    23 k-point     1 on f001
   Task    24 k-point     1 on f001
   Task    25 k-point     1 on f001
   Task    26 k-point     1 on f001
   Task    27 k-point     1 on f001
   Task    28 k-point     1 on f001
   Task    29 k-point     1 on f001
   Task    30 k-point     1 on f001
   Task    31 k-point     1 on f001
   Task    32 k-point     1 on f001
   Task    33 k-point     1 on f001
   Task    34 k-point     1 on f001
   Task    35 k-point     1 on f001
   Task    36 k-point     1 on f001
   Task    37 k-point     1 on f001
   Task    38 k-point     1 on f001
   Task    39 k-point     1 on f001
   Task    40 k-point     1 on f001
   Task    41 k-point     1 on f001
   Task    42 k-point     1 on f001
   Task    43 k-point     1 on f001
   Task    44 k-point     1 on f001
   Task    45 k-point     1 on f001
   Task    46 k-point     1 on f001
   Task    47 k-point     1 on f001
   Task    48 k-point     1 on f001
   Task    49 k-point     1 on f001
   Task    50 k-point     1 on f001
   Task    51 k-point     1 on f001
   Task    52 k-point     1 on f001
   Task    53 k-point     1 on f001
   Task    54 k-point     1 on f001
   Task    55 k-point     1 on f001
  Tasks:    56 split into      8 X      7 BLACS grid
  Calculating block size based on n_basis =          482  max_nprow =            8  max_npcol =            7
  ScaLAPACK block size set to:           16
  Allocating        0.039 MB for ovlp
  Allocating        0.078 MB for ham
  Allocating        0.078 MB for eigenvec
  Required Scalapack workspace - INTEGER:            1  REAL:             1
  Partitioning the integration grid into batches with parallel hashing+maxmin method.
  | Number of batches:     2291
  | Maximal batch size:     200
  | Minimal batch size:       3
  | Average batch size:     107.590
  | Standard deviation of batch sizes:      29.781

  Integration load balanced across    56 MPI tasks.
  Work distribution over tasks is as follows:
  Task     0 has       4411 integration points.
  Task     1 has       4363 integration points.
  Task     2 has       4410 integration points.
  Task     3 has       4366 integration points.
  Task     4 has       4401 integration points.
  Task     5 has       4367 integration points.
  Task     6 has       4506 integration points.
  Task     7 has       4441 integration points.
  Task     8 has       4360 integration points.
  Task     9 has       4394 integration points.
  Task    10 has       4476 integration points.
  Task    11 has       4362 integration points.
  Task    12 has       4442 integration points.
  Task    13 has       4374 integration points.
  Task    14 has       4359 integration points.
  Task    15 has       4367 integration points.
  Task    16 has       4400 integration points.
  Task    17 has       4371 integration points.
  Task    18 has       4459 integration points.
  Task    19 has       4365 integration points.
  Task    20 has       4510 integration points.
  Task    21 has       4363 integration points.
  Task    22 has       4359 integration points.
  Task    23 has       4405 integration points.
  Task    24 has       4456 integration points.
  Task    25 has       4359 integration points.
  Task    26 has       4360 integration points.
  Task    27 has       4360 integration points.
  Task    28 has       4403 integration points.
  Task    29 has       4425 integration points.
  Task    30 has       4421 integration points.
  Task    31 has       4361 integration points.
  Task    32 has       4418 integration points.
  Task    33 has       4428 integration points.
  Task    34 has       4451 integration points.
  Task    35 has       4364 integration points.
  Task    36 has       4445 integration points.
  Task    37 has       4364 integration points.
  Task    38 has       4399 integration points.
  Task    39 has       4472 integration points.
  Task    40 has       4422 integration points.
  Task    41 has       4429 integration points.
  Task    42 has       4374 integration points.
  Task    43 has       4363 integration points.
  Task    44 has       4512 integration points.
  Task    45 has       4416 integration points.
  Task    46 has       4460 integration points.
  Task    47 has       4362 integration points.
  Task    48 has       4363 integration points.
  Task    49 has       4358 integration points.
  Task    50 has       4392 integration points.
  Task    51 has       4388 integration points.
  Task    52 has       4388 integration points.
  Task    53 has       4404 integration points.
  Task    54 has       4372 integration points.
  Task    55 has       4368 integration points.
  Initializing partition tables, free-atom densities, potentials, etc. across the integration grid (initialize_grid_storage).
  | initialize_grid_storage: Actual outermost partition radius vs. multipole_radius_free
  | (-- VB: in principle, multipole_radius_free should be larger, hence this output)
  | Species        1: Confinement radius =              4.999999999999999 AA, multipole_radius_free =              5.054417573612229 AA.
  | Species        1: outer_partition_radius set to              5.054417573612229 AA .
  | Species        2: Confinement radius =              4.999999999999999 AA, multipole_radius_free =              5.019602836301480 AA.
  | Species        2: outer_partition_radius set to              5.019602836301480 AA .
  | The sparse table of interatomic distances needs         19.15 kbyte instead of        16.93 kbyte of memory.
  | Using the partition_type stratmann_smoother will reduce your memory usage.
  | Net number of integration points:   246488
  | of which are non-zero points    :   211061
  Renormalizing the initial density to the exact electron count on the 3D integration grid.
  | Initial density: Formal number of electrons (from input files) :     186.0000000000
  | Integrated number of electrons on 3D grid     :     185.9998744649
  | Charge integration error                      :      -0.0001255351
  | Normalization factor for density and gradient :       1.0000006749
  Renormalizing the free-atom superposition density to the exact electron count on the 3D integration grid.
  | Formal number of electrons (from input files) :     185.0000000000
  | Integrated number of electrons on 3D grid     :     185.9998301259
  | Charge integration error                      :      -0.0001698741
  | Normalization factor for density and gradient :       1.0000009133
  Obtaining max. number of non-zero basis functions in each batch (get_n_compute_maxes).
  | Maximal number of non-zero basis functions:      250 in task     0
  | Maximal number of non-zero basis functions:      251 in task     1
  | Maximal number of non-zero basis functions:      251 in task     2
  | Maximal number of non-zero basis functions:      249 in task     3
  | Maximal number of non-zero basis functions:      248 in task     4
  | Maximal number of non-zero basis functions:      244 in task     5
  | Maximal number of non-zero basis functions:      245 in task     6
  | Maximal number of non-zero basis functions:      251 in task     7
  | Maximal number of non-zero basis functions:      254 in task     8
  | Maximal number of non-zero basis functions:      253 in task     9
  | Maximal number of non-zero basis functions:      252 in task    10
  | Maximal number of non-zero basis functions:      249 in task    11
  | Maximal number of non-zero basis functions:      246 in task    12
  | Maximal number of non-zero basis functions:      245 in task    13
  | Maximal number of non-zero basis functions:      251 in task    14
  | Maximal number of non-zero basis functions:      245 in task    15
  | Maximal number of non-zero basis functions:      252 in task    16
  | Maximal number of non-zero basis functions:      252 in task    17
  | Maximal number of non-zero basis functions:      247 in task    18
  | Maximal number of non-zero basis functions:      241 in task    19
  | Maximal number of non-zero basis functions:      247 in task    20
  | Maximal number of non-zero basis functions:      247 in task    21
  | Maximal number of non-zero basis functions:      238 in task    22
  | Maximal number of non-zero basis functions:      250 in task    23
  | Maximal number of non-zero basis functions:      238 in task    24
  | Maximal number of non-zero basis functions:      254 in task    25
  | Maximal number of non-zero basis functions:      252 in task    26
  | Maximal number of non-zero basis functions:      251 in task    27
  | Maximal number of non-zero basis functions:      240 in task    28
  | Maximal number of non-zero basis functions:      251 in task    29
  | Maximal number of non-zero basis functions:      242 in task    30
  | Maximal number of non-zero basis functions:      250 in task    31
  | Maximal number of non-zero basis functions:      239 in task    32
  | Maximal number of non-zero basis functions:      255 in task    33
  | Maximal number of non-zero basis functions:      242 in task    34
  | Maximal number of non-zero basis functions:      250 in task    35
  | Maximal number of non-zero basis functions:      251 in task    36
  | Maximal number of non-zero basis functions:      243 in task    37
  | Maximal number of non-zero basis functions:      253 in task    38
  | Maximal number of non-zero basis functions:      247 in task    39
  | Maximal number of non-zero basis functions:      241 in task    40
  | Maximal number of non-zero basis functions:      256 in task    41
  | Maximal number of non-zero basis functions:      239 in task    42
  | Maximal number of non-zero basis functions:      245 in task    43
  | Maximal number of non-zero basis functions:      246 in task    44
  | Maximal number of non-zero basis functions:      242 in task    45
  | Maximal number of non-zero basis functions:      243 in task    46
  | Maximal number of non-zero basis functions:      250 in task    47
  | Maximal number of non-zero basis functions:      239 in task    48
  | Maximal number of non-zero basis functions:      247 in task    49
  | Maximal number of non-zero basis functions:      248 in task    50
  | Maximal number of non-zero basis functions:      236 in task    51
  | Maximal number of non-zero basis functions:      236 in task    52
  | Maximal number of non-zero basis functions:      242 in task    53
  | Maximal number of non-zero basis functions:      250 in task    54
  | Maximal number of non-zero basis functions:      242 in task    55
  Selecting the method for density update.
  Loop over occupied states selected for charge density update.
  Hamiltonian matrix size:
  | Size of matrix non-packed:                116403
  | Size of matrix packed:           80690
  Allocating        1.500 MB for KS_eigenvector
  Integrating Hamiltonian matrix: batch-based integration.
  Time summed over all CPUs for integration: real work       16.816 s, elapsed       30.056 s => Consider using load balancing!
  Integrating overlap matrix.
  Time summed over all CPUs for integration: real work        2.060 s, elapsed        4.368 s
  Decreasing sparse matrix size:
  | Tolerance:  0.1000E-12
  Hamiltonian matrix
  | Array has    78231 nonzero elements out of    80690 elements
  | Sparsity factor is 0.030
  Overlap matrix
  | Array has    76804 nonzero elements out of    80690 elements
  | Sparsity factor is 0.048
  New size of hamiltonian matrix:       78232
  Deallocating overlap matrix.

  Updating Kohn-Sham eigenvalues and eigenvectors using ELSI and the ELPA eigensolver.
  Overlap matrix is not singular
  | Lowest and highest eigenvalues :  0.8657E-03,  0.6930E+01
  Finished singularity check of overlap matrix
  | Time :     4.573 s
  Starting ELPA eigensolver
  Finished Cholesky decomposition
  | Time :     0.312 s
  Finished transformation to standard eigenproblem
  | Time :     0.649 s
  Finished solving standard eigenproblem
  | Time :     4.471 s
  Finished back-transformation of eigenvectors
  | Time :     0.246 s
  Starting ELPA eigensolver
  Finished transformation to standard eigenproblem
  | Time :     0.486 s
  Finished solving standard eigenproblem
  | Time :     4.598 s
  Finished back-transformation of eigenvectors
  | Time :     0.213 s

  Obtaining occupation numbers and electronic chemical potential using ELSI.
  | Note that, for insulating systems, the printed 'chemical potential' value is not uniquely defined.
  | It can be anywhere in the energy gap, as long as it correctly separates occupied and unoccupied states.
  | In systems with a gap, the physically relevant chemical potential is the VBM or HOMO.

  | Chemical potential (Fermi level):    -8.41098567 eV
  Writing Kohn-Sham eigenvalues.

  Spin-up eigenvalues:

  State    Occupation    Eigenvalue [Ha]    Eigenvalue [eV]
      1       1.00000         -10.195210         -277.42579
      2       1.00000         -10.194651         -277.41056
      3       1.00000         -10.193998         -277.39280
      4       1.00000         -10.193664         -277.38370
      5       1.00000         -10.193347         -277.37510
      6       1.00000         -10.193263         -277.37279
      7       1.00000         -10.193030         -277.36646
      8       1.00000         -10.192912         -277.36324
      9       1.00000         -10.192825         -277.36089
     10       1.00000         -10.192728         -277.35824
     11       1.00000         -10.192562         -277.35373
     12       1.00000         -10.192444         -277.35053
     13       1.00000         -10.192327         -277.34732
     14       1.00000         -10.192055         -277.33993
     15       1.00000         -10.191880         -277.33516
     16       1.00000         -10.191830         -277.33380
     17       1.00000         -10.190667         -277.30215
     18       1.00000         -10.190299         -277.29215
     19       1.00000         -10.188860         -277.25300
     20       1.00000         -10.188645         -277.24713
     21       1.00000         -10.188472         -277.24243
     22       1.00000         -10.187288         -277.21021
     23       1.00000         -10.187060         -277.20401
     24       1.00000         -10.187032         -277.20326
     25       1.00000         -10.185048         -277.14926
     26       1.00000         -10.184454         -277.13310
     27       1.00000         -10.184442         -277.13277
     28       1.00000         -10.184268         -277.12804
     29       1.00000          -1.031344          -28.06430
     30       1.00000          -1.012760          -27.55859
     31       1.00000          -1.006964          -27.40089
     32       1.00000          -0.994056          -27.04963
     33       1.00000          -0.974147          -26.50789
     34       1.00000          -0.948073          -25.79838
     35       1.00000          -0.924848          -25.16640
     36       1.00000          -0.908594          -24.72411
     37       1.00000          -0.905120          -24.62956
     38       1.00000          -0.898284          -24.44355
     39       1.00000          -0.895928          -24.37945
     40       1.00000          -0.888306          -24.17205
     41       1.00000          -0.866107          -23.56797
     42       1.00000          -0.853718          -23.23085
     43       1.00000          -0.811861          -22.09185
     44       1.00000          -0.795032          -21.63391
     45       1.00000          -0.781135          -21.25577
     46       1.00000          -0.779176          -21.20246
     47       1.00000          -0.766258          -20.85095
     48       1.00000          -0.759552          -20.66846
     49       1.00000          -0.747772          -20.34792
     50       1.00000          -0.745920          -20.29752
     51       1.00000          -0.708151          -19.26978
     52       1.00000          -0.700081          -19.05018
     53       1.00000          -0.689137          -18.75237
     54       1.00000          -0.680793          -18.52533
     55       1.00000          -0.674741          -18.36065
     56       1.00000          -0.668288          -18.18505
     57       1.00000          -0.656263          -17.85782
     58       1.00000          -0.650567          -17.70282
     59       1.00000          -0.641338          -17.45169
     60       1.00000          -0.632730          -17.21745
     61       1.00000          -0.623008          -16.95290
     62       1.00000          -0.617664          -16.80749
     63       1.00000          -0.612070          -16.65526
     64       1.00000          -0.610845          -16.62193
     65       1.00000          -0.605214          -16.46870
     66       1.00000          -0.600527          -16.34118
     67       1.00000          -0.596061          -16.21964
     68       1.00000          -0.592102          -16.11192
     69       1.00000          -0.588417          -16.01163
     70       1.00000          -0.577091          -15.70343
     71       1.00000          -0.568492          -15.46945
     72       1.00000          -0.563974          -15.34652
     73       1.00000          -0.553622          -15.06482
     74       1.00000          -0.548382          -14.92224
     75       1.00000          -0.543069          -14.77766
     76       1.00000          -0.538181          -14.64464
     77       1.00000          -0.535206          -14.56369
     78       1.00000          -0.525990          -14.31291
     79       1.00000          -0.525335          -14.29509
     80       1.00000          -0.517792          -14.08985
     81       1.00000          -0.514691          -14.00544
     82       1.00000          -0.513617          -13.97623
     83       1.00000          -0.498562          -13.56657
     84       1.00000          -0.483051          -13.14447
     85       1.00000          -0.457585          -12.45151
     86       1.00000          -0.434128          -11.81323
     87       1.00000          -0.423535          -11.52498
     88       1.00000          -0.416059          -11.32154
     89       1.00000          -0.412277          -11.21863
     90       1.00000          -0.408239          -11.10874
     91       1.00000          -0.398610          -10.84672
     92       1.00000          -0.368426          -10.02537
     93       1.00000          -0.359949           -9.79472
     94       0.00000          -0.302539           -8.23249
     95       0.00000          -0.258777           -7.04168
     96       0.00000          -0.230155           -6.26284
     97       0.00000          -0.228722           -6.22383
     98       0.00000          -0.225955           -6.14854
     99       0.00000          -0.218194           -5.93737
    100       0.00000          -0.203625           -5.54093
    101       0.00000          -0.194719           -5.29857
    102       0.00000          -0.143215           -3.89709
    103       0.00000          -0.124990           -3.40115
    104       0.00000          -0.111429           -3.03214
    105       0.00000          -0.087283           -2.37509
    106       0.00000          -0.081802           -2.22593
    107       0.00000          -0.077153           -2.09943
    108       0.00000          -0.071782           -1.95328
    109       0.00000          -0.069408           -1.88870
    110       0.00000          -0.057709           -1.57033
    111       0.00000          -0.052548           -1.42990
    112       0.00000          -0.048161           -1.31053
    113       0.00000          -0.042966           -1.16916
    114       0.00000          -0.038092           -1.03653
    115       0.00000          -0.029497           -0.80264
    116       0.00000          -0.024773           -0.67409
    117       0.00000          -0.024362           -0.66292
    118       0.00000          -0.020619           -0.56106
    119       0.00000          -0.012203           -0.33206
    120       0.00000          -0.009054           -0.24636
    121       0.00000          -0.002752           -0.07490
    122       0.00000           0.005489            0.14936
    123       0.00000           0.012712            0.34591
    124       0.00000           0.014683            0.39955
    125       0.00000           0.019752            0.53749
    126       0.00000           0.029272            0.79652
    127       0.00000           0.030671            0.83460
    128       0.00000           0.037666            1.02494
    129       0.00000           0.040026            1.08916
    130       0.00000           0.046665            1.26981
    131       0.00000           0.059863            1.62894
    132       0.00000           0.061315            1.66847
    133       0.00000           0.069517            1.89166
    134       0.00000           0.077702            2.11438
    135       0.00000           0.080614            2.19362
    136       0.00000           0.086253            2.34707
    137       0.00000           0.094991            2.58485
    138       0.00000           0.100884            2.74519
    139       0.00000           0.105331            2.86619
    140       0.00000           0.120324            3.27419
    141       0.00000           0.126209            3.43432
    142       0.00000           0.137840            3.75081
    143       0.00000           0.144001            3.91847
    144       0.00000           0.153025            4.16403
    145       0.00000           0.155492            4.23114
    146       0.00000           0.157450            4.28444
    147       0.00000           0.161029            4.38181
    148       0.00000           0.162055            4.40975
    149       0.00000           0.164403            4.47363
    150       0.00000           0.174003            4.73486
    151       0.00000           0.176002            4.78926
    152       0.00000           0.180608            4.91460
    153       0.00000           0.188971            5.14218
    154       0.00000           0.190419            5.18156
    155       0.00000           0.195728            5.32603
    156       0.00000           0.200911            5.46706
    157       0.00000           0.203086            5.52626
    158       0.00000           0.204501            5.56476
    159       0.00000           0.211193            5.74686
    160       0.00000           0.220483            5.99965
    161       0.00000           0.222688            6.05965
    162       0.00000           0.225398            6.13338
    163       0.00000           0.227899            6.20146
    164       0.00000           0.232454            6.32539
    165       0.00000           0.234439            6.37940
    166       0.00000           0.240959            6.55682
    167       0.00000           0.244779            6.66078
    168       0.00000           0.245718            6.68632
    169       0.00000           0.248873            6.77218
    170       0.00000           0.254371            6.92178
    171       0.00000           0.261516            7.11622
    172       0.00000           0.264820            7.20611
    173       0.00000           0.268813            7.31478
    174       0.00000           0.269554            7.33493
    175       0.00000           0.272265            7.40871
    176       0.00000           0.274294            7.46392
    177       0.00000           0.276046            7.51159
    178       0.00000           0.277068            7.53941
    179       0.00000           0.279771            7.61295
    180       0.00000           0.281192            7.65162
    181       0.00000           0.289386            7.87459
    182       0.00000           0.293576            7.98860
    183       0.00000           0.294628            8.01724
    184       0.00000           0.303548            8.25995
    185       0.00000           0.307531            8.36834
    186       0.00000           0.311981            8.48944
    187       0.00000           0.319785            8.70180
    188       0.00000           0.325812            8.86580
    189       0.00000           0.328835            8.94804
    190       0.00000           0.332759            9.05483
    191       0.00000           0.336891            9.16728
    192       0.00000           0.359970            9.79528
    193       0.00000           0.363808            9.89971
    194       0.00000           0.380483           10.35347
    195       0.00000           0.385279           10.48396
    196       0.00000           0.386855           10.52685
    197       0.00000           0.401311           10.92023
    198       0.00000           0.405029           11.02141
    199       0.00000           0.421454           11.46836
    200       0.00000           0.430404           11.71190
    201       0.00000           0.446367           12.14627
    202       0.00000           0.462125           12.57505
    203       0.00000           0.473567           12.88641
    204       0.00000           0.493416           13.42653

  Spin-down eigenvalues:

  State    Occupation    Eigenvalue [Ha]    Eigenvalue [eV]
      1       1.00000         -10.179301         -276.99287
      2       1.00000         -10.178749         -276.97786
      3       1.00000         -10.178102         -276.96024
      4       1.00000         -10.177772         -276.95128
      5       1.00000         -10.177462         -276.94284
      6       1.00000         -10.177380         -276.94061
      7       1.00000         -10.177148         -276.93428
      8       1.00000         -10.177037         -276.93127
      9       1.00000         -10.176952         -276.92895
     10       1.00000         -10.176856         -276.92633
     11       1.00000         -10.176694         -276.92194
     12       1.00000         -10.176569         -276.91855
     13       1.00000         -10.176462         -276.91561
     14       1.00000         -10.176184         -276.90805
     15       1.00000         -10.176087         -276.90541
     16       1.00000         -10.175970         -276.90224
     17       1.00000         -10.175399         -276.88670
     18       1.00000         -10.174490         -276.86196
     19       1.00000         -10.173697         -276.84039
     20       1.00000         -10.173484         -276.83459
     21       1.00000         -10.172681         -276.81273
     22       1.00000         -10.172128         -276.79768
     23       1.00000         -10.171913         -276.79182
     24       1.00000         -10.171882         -276.79098
     25       1.00000         -10.169946         -276.73830
     26       1.00000         -10.169325         -276.72141
     27       1.00000         -10.169319         -276.72125
     28       1.00000         -10.169143         -276.71646
     29       1.00000          -0.970302          -26.40325
     30       1.00000          -0.950458          -25.86328
     31       1.00000          -0.943922          -25.68542
     32       1.00000          -0.930116          -25.30975
     33       1.00000          -0.909122          -24.73846
     34       1.00000          -0.884347          -24.06432
     35       1.00000          -0.860339          -23.41102
     36       1.00000          -0.841902          -22.90932
     37       1.00000          -0.832351          -22.64943
     38       1.00000          -0.827891          -22.52807
     39       1.00000          -0.825720          -22.46897
     40       1.00000          -0.822170          -22.37240
     41       1.00000          -0.798680          -21.73319
     42       1.00000          -0.784431          -21.34546
     43       1.00000          -0.741368          -20.17364
     44       1.00000          -0.724421          -19.71250
     45       1.00000          -0.708226          -19.27180
     46       1.00000          -0.702110          -19.10539
     47       1.00000          -0.694312          -18.89320
     48       1.00000          -0.684928          -18.63785
     49       1.00000          -0.670268          -18.23891
     50       1.00000          -0.667011          -18.15030
     51       1.00000          -0.631440          -17.18236
     52       1.00000          -0.618227          -16.82282
     53       1.00000          -0.602625          -16.39827
     54       1.00000          -0.601672          -16.37234
     55       1.00000          -0.593193          -16.14160
     56       1.00000          -0.586139          -15.94964
     57       1.00000          -0.580094          -15.78517
     58       1.00000          -0.567735          -15.44886
     59       1.00000          -0.555368          -15.11232
     60       1.00000          -0.546410          -14.86857
     61       1.00000          -0.532178          -14.48131
     62       1.00000          -0.530891          -14.44629
     63       1.00000          -0.516699          -14.06010
     64       1.00000          -0.514450          -13.99890
     65       1.00000          -0.503054          -13.68878
     66       1.00000          -0.498469          -13.56402
     67       1.00000          -0.495001          -13.46967
     68       1.00000          -0.491471          -13.37361
     69       1.00000          -0.487532          -13.26641
     70       1.00000          -0.482819          -13.13818
     71       1.00000          -0.473256          -12.87795
     72       1.00000          -0.468841          -12.75783
     73       1.00000          -0.461968          -12.57078
     74       1.00000          -0.461288          -12.55229
     75       1.00000          -0.460083          -12.51950
     76       1.00000          -0.454076          -12.35604
     77       1.00000          -0.448826          -12.21318
     78       1.00000          -0.445057          -12.11062
     79       1.00000          -0.434923          -11.83486
     80       1.00000          -0.429190          -11.67884
     81       1.00000          -0.427649          -11.63692
     82       1.00000          -0.424486          -11.55085
     83       1.00000          -0.418849          -11.39745
     84       1.00000          -0.405202          -11.02612
     85       1.00000          -0.404240          -10.99992
     86       1.00000          -0.380235          -10.34671
     87       1.00000          -0.369010          -10.04126
     88       1.00000          -0.360052           -9.79752
     89       1.00000          -0.355939           -9.68560
     90       1.00000          -0.353241           -9.61217
     91       1.00000          -0.344083           -9.36298
     92       1.00000          -0.312938           -8.51546
     93       0.00000          -0.304199           -8.27769
     94       0.00000          -0.245874           -6.69057
     95       0.00000          -0.202607           -5.51322
     96       0.00000          -0.172670           -4.69859
     97       0.00000          -0.172031           -4.68119
     98       0.00000          -0.168793           -4.59308
     99       0.00000          -0.159343           -4.33595
    100       0.00000          -0.146801           -3.99465
    101       0.00000          -0.137249           -3.73473
    102       0.00000          -0.084273           -2.29318
    103       0.00000          -0.065424           -1.78029
    104       0.00000          -0.052796           -1.43664
    105       0.00000          -0.026666           -0.72561
    106       0.00000          -0.001042           -0.02835
    107       0.00000          -0.000657           -0.01789
    108       0.00000           0.007886            0.21459
    109       0.00000           0.010837            0.29489
    110       0.00000           0.013038            0.35478
    111       0.00000           0.021750            0.59184
    112       0.00000           0.023131            0.62941
    113       0.00000           0.034169            0.92980
    114       0.00000           0.035619            0.96925
    115       0.00000           0.039138            1.06499
    116       0.00000           0.042446            1.15501
    117       0.00000           0.047343            1.28828
    118       0.00000           0.051737            1.40783
    119       0.00000           0.056968            1.55017
    120       0.00000           0.064156            1.74578
    121       0.00000           0.068558            1.86556
    122       0.00000           0.072493            1.97264
    123       0.00000           0.081093            2.20664
    124       0.00000           0.088106            2.39749
    125       0.00000           0.091456            2.48865
    126       0.00000           0.094659            2.57581
    127       0.00000           0.102455            2.78795
    128       0.00000           0.110678            3.01170
    129       0.00000           0.112185            3.05270
    130       0.00000           0.117269            3.19105
    131       0.00000           0.128271            3.49043
    132       0.00000           0.136468            3.71350
    133       0.00000           0.145190            3.95082
    134       0.00000           0.149032            4.05536
    135       0.00000           0.151102            4.11171
    136       0.00000           0.155817            4.24000
    137       0.00000           0.171150            4.65723
    138       0.00000           0.173321            4.71630
    139       0.00000           0.175011            4.76229
    140       0.00000           0.179357            4.88056
    141       0.00000           0.186275            5.06881
    142       0.00000           0.188996            5.14283
    143       0.00000           0.195509            5.32007
    144       0.00000           0.203316            5.53251
    145       0.00000           0.206510            5.61944
    146       0.00000           0.208789            5.68145
    147       0.00000           0.209475            5.70010
    148       0.00000           0.214885            5.84731
    149       0.00000           0.220590            6.00256
    150       0.00000           0.225162            6.12697
    151       0.00000           0.228134            6.20783
    152       0.00000           0.230281            6.26626
    153       0.00000           0.239311            6.51198
    154       0.00000           0.239851            6.52668
    155       0.00000           0.242018            6.58564
    156       0.00000           0.244934            6.66501
    157       0.00000           0.249730            6.79549
    158       0.00000           0.252645            6.87483
    159       0.00000           0.262275            7.13688
    160       0.00000           0.269313            7.32838
    161       0.00000           0.271155            7.37850
    162       0.00000           0.275953            7.50907
    163       0.00000           0.281021            7.64698
    164       0.00000           0.286547            7.79734
    165       0.00000           0.289518            7.87819
    166       0.00000           0.293953            7.99887
[...]
     35       1.00000          -0.821999          -22.36772
     36       1.00000          -0.811589          -22.08446
     37       1.00000          -0.794686          -21.62450
     38       1.00000          -0.793813          -21.60074
     39       1.00000          -0.781605          -21.26855
     40       1.00000          -0.773929          -21.05969
     41       1.00000          -0.759113          -20.65652
     42       1.00000          -0.751890          -20.45998
     43       1.00000          -0.711976          -19.37386
     44       1.00000          -0.690391          -18.78649
     45       1.00000          -0.679873          -18.50028
     46       1.00000          -0.674239          -18.34698
     47       1.00000          -0.657458          -17.89034
     48       1.00000          -0.655855          -17.84673
     49       1.00000          -0.632651          -17.21531
     50       1.00000          -0.631424          -17.18192
     51       1.00000          -0.611155          -16.63037
     52       1.00000          -0.603551          -16.42347
     53       1.00000          -0.582837          -15.85981
     54       1.00000          -0.578002          -15.72823
     55       1.00000          -0.571929          -15.56298
     56       1.00000          -0.566065          -15.40340
     57       1.00000          -0.549597          -14.95529
     58       1.00000          -0.533952          -14.52959
     59       1.00000          -0.532555          -14.49157
     60       1.00000          -0.528324          -14.37643
     61       1.00000          -0.507584          -13.81207
     62       1.00000          -0.504323          -13.72334
     63       1.00000          -0.498218          -13.55719
     64       1.00000          -0.497060          -13.52568
     65       1.00000          -0.494653          -13.46020
     66       1.00000          -0.490602          -13.34995
     67       1.00000          -0.490220          -13.33958
     68       1.00000          -0.486028          -13.22550
     69       1.00000          -0.477442          -12.99187
     70       1.00000          -0.469839          -12.78496
     71       1.00000          -0.467762          -12.72845
     72       1.00000          -0.465911          -12.67808
     73       1.00000          -0.465255          -12.66023
     74       1.00000          -0.453548          -12.34166
     75       1.00000          -0.449948          -12.24372
     76       1.00000          -0.443424          -12.06618
     77       1.00000          -0.434217          -11.81564
     78       1.00000          -0.427358          -11.62900
     79       1.00000          -0.423107          -11.51334
     80       1.00000          -0.421492          -11.46939
     81       1.00000          -0.413320          -11.24702
     82       1.00000          -0.408546          -11.11711
     83       1.00000          -0.407026          -11.07574
     84       1.00000          -0.396659          -10.79364
     85       1.00000          -0.393616          -10.71084
     86       1.00000          -0.367184           -9.99160
     87       1.00000          -0.362202           -9.85603
     88       1.00000          -0.344752           -9.38118
     89       1.00000          -0.343219           -9.33947
     90       1.00000          -0.327498           -8.91169
     91       1.00000          -0.326143           -8.87481
     92       1.00000          -0.299919           -8.16122
     93       0.00000          -0.290926           -7.91651
     94       0.00000          -0.238043           -6.47748
     95       0.00000          -0.187529           -5.10292
     96       0.00000          -0.160945           -4.37955
     97       0.00000          -0.157379           -4.28251
     98       0.00000          -0.153644           -4.18088
     99       0.00000          -0.136771           -3.72174
    100       0.00000          -0.130506           -3.55124
    101       0.00000          -0.117858           -3.20707
    102       0.00000          -0.068387           -1.86090
    103       0.00000          -0.060929           -1.65796
    104       0.00000          -0.053130           -1.44575
    105       0.00000          -0.051777           -1.40894
    106       0.00000          -0.047099           -1.28164
    107       0.00000          -0.040750           -1.10886
    108       0.00000          -0.037911           -1.03161
    109       0.00000          -0.030636           -0.83365
    110       0.00000          -0.021905           -0.59606
    111       0.00000          -0.015494           -0.42162
    112       0.00000          -0.008553           -0.23273
    113       0.00000          -0.001376           -0.03744
    114       0.00000           0.003150            0.08571
    115       0.00000           0.017384            0.47303
    116       0.00000           0.027400            0.74560
    117       0.00000           0.032461            0.88330
    118       0.00000           0.039414            1.07251
    119       0.00000           0.042477            1.15586
    120       0.00000           0.046604            1.26816
    121       0.00000           0.054535            1.48398
    122       0.00000           0.057222            1.55710
    123       0.00000           0.064689            1.76028
    124       0.00000           0.068714            1.86980
    125       0.00000           0.082634            2.24858
    126       0.00000           0.087768            2.38830
    127       0.00000           0.095483            2.59822
    128       0.00000           0.100923            2.74624
    129       0.00000           0.109086            2.96839
    130       0.00000           0.116495            3.17000
    131       0.00000           0.126042            3.42978
    132       0.00000           0.128059            3.48467
    133       0.00000           0.130413            3.54873
    134       0.00000           0.140354            3.81922
    135       0.00000           0.144990            3.94538
    136       0.00000           0.149947            4.08027
    137       0.00000           0.152150            4.14022
    138       0.00000           0.157967            4.29851
    139       0.00000           0.160889            4.37801
    140       0.00000           0.167618            4.56111
    141       0.00000           0.168376            4.58173
    142       0.00000           0.169206            4.60432
    143       0.00000           0.174291            4.74269
    144       0.00000           0.181345            4.93465
    145       0.00000           0.187103            5.09134
    146       0.00000           0.193257            5.25880
    147       0.00000           0.199087            5.41744
    148       0.00000           0.201298            5.47760
    149       0.00000           0.206074            5.60756
    150       0.00000           0.211194            5.74688
    151       0.00000           0.214909            5.84796
    152       0.00000           0.219666            5.97741
    153       0.00000           0.222935            6.06638
    154       0.00000           0.228772            6.22521
    155       0.00000           0.233086            6.34259
    156       0.00000           0.236559            6.43709
    157       0.00000           0.243690            6.63115
    158       0.00000           0.248418            6.75979
    159       0.00000           0.255236            6.94532
    160       0.00000           0.257664            7.01139
    161       0.00000           0.261948            7.12797
    162       0.00000           0.269044            7.32107
    163       0.00000           0.277788            7.55901
    164       0.00000           0.279954            7.61793
    165       0.00000           0.284601            7.74439
    166       0.00000           0.286939            7.80802
    167       0.00000           0.288909            7.86162
    168       0.00000           0.289046            7.86534
    169       0.00000           0.294163            8.00459
    170       0.00000           0.299081            8.13840
    171       0.00000           0.301143            8.19453
    172       0.00000           0.306660            8.34464
    173       0.00000           0.321146            8.73882
    174       0.00000           0.325934            8.86912
    175       0.00000           0.332493            9.04759
    176       0.00000           0.335137            9.11954
    177       0.00000           0.335844            9.13877
    178       0.00000           0.340175            9.25663
    179       0.00000           0.343544            9.34832
    180       0.00000           0.347779            9.46354
    181       0.00000           0.349081            9.49898
    182       0.00000           0.352821            9.60074
    183       0.00000           0.355901            9.68456
    184       0.00000           0.362538            9.86517
    185       0.00000           0.365231            9.93843
    186       0.00000           0.370950           10.09406
    187       0.00000           0.386939           10.52916
    188       0.00000           0.397921           10.82798
    189       0.00000           0.405355           11.03026
    190       0.00000           0.410851           11.17983
    191       0.00000           0.430666           11.71903
    192       0.00000           0.430970           11.72728
    193       0.00000           0.435234           11.84332
    194       0.00000           0.436765           11.88498
    195       0.00000           0.455941           12.40679
    196       0.00000           0.465028           12.65406
    197       0.00000           0.469459           12.77464
    198       0.00000           0.480352           13.07105
    199       0.00000           0.481428           13.10033
    200       0.00000           0.492510           13.40188
    201       0.00000           0.496902           13.52139
    202       0.00000           0.503275           13.69482
    203       0.00000           0.515756           14.03444
    204       0.00000           0.537122           14.61584

  Current spin moment of the entire structure :
  | N = N_up - N_down :    1.00
  | S                 :    0.50
  | J                 :    2.00

  Highest occupied state (VBM) at     -8.16122059 eV
  | Occupation number:      1.00000000
  | Spin channel:        2

  Lowest unoccupied state (CBM) at    -7.91651057 eV
  | Occupation number:      0.00000000
  | Spin channel:        2

  Overall HOMO-LUMO gap:      0.24471003 eV.

  Total energy components:
  | Sum of eigenvalues            :        -635.14230629 Ha      -17283.10150855 eV
  | XC energy correction          :        -158.24414853 Ha       -4306.04237063 eV
  | XC potential correction       :         202.62318852 Ha        5513.65749146 eV
  | Free-atom electrostatic energy:        -471.06743792 Ha      -12818.39717855 eV
  | Hartree energy correction     :         -16.15987116 Ha        -439.73246750 eV
  | Entropy correction            :          -0.00000000 Ha          -0.00000000 eV
  | ---------------------------
  | Total energy                  :       -1077.99057537 Ha      -29333.61603376 eV
  | Total energy, T -> 0          :       -1077.99057537 Ha      -29333.61603376 eV  <-- do not rely on this value for anything but (periodic) metals
  | Electronic free energy        :       -1077.99057537 Ha      -29333.61603376 eV

  Derived energy quantities:
  | Kinetic energy                :        1076.60587466 Ha       29295.93641023 eV
  | Electrostatic energy          :       -1996.35230149 Ha      -54323.51007337 eV
  | Energy correction for multipole
  | error in Hartree potential    :           0.38227272 Ha          10.40216991 eV
  | Sum of eigenvalues per atom                           :        -375.71959801 eV
  | Total energy (T->0) per atom                          :        -637.68730508 eV  <-- do not rely on this value for anything but (periodic) metals
  | Electronic free energy per atom                       :        -637.68730508 eV
  End evaluation of scaled ZORA corrections.
  | Time for scaled ZORA corrections            :        1.382 s           0.526 s
------------------------------------------------------------

  Energy and forces in a compact form:
  | Total energy uncorrected      :         -0.293336160337619E+05 eV
  | Total energy corrected        :         -0.293336160337619E+05 eV  <-- do not rely on this value for anything but (periodic) metals
  | Electronic free energy        :         -0.293336160337619E+05 eV

  ------------------------------------ 
  Start decomposition of the XC Energy 
  ------------------------------------ 
  X and C from original XC functional choice 
  Hartree-Fock Energy :          0.000000000 Ha              0.000000000 eV
  X Energy            :       -151.961350708 Ha          -4135.078743241 eV
  C Energy            :         -6.282797826 Ha           -170.963627385 eV
  XC Energy w/o HF    :       -158.244148534 Ha          -4306.042370626 eV
  Total XC Energy     :       -158.244148534 Ha          -4306.042370626 eV
  ------------------------------------ 
  LDA X and C from self-consistent density 
  X Energy LDA        :       -136.829713804 Ha          -3723.325953340 eV
  C Energy LDA        :        -11.935526958 Ha           -324.782213258 eV
  ------------------------------------ 
  End decomposition of the XC Energy 
  ------------------------------------ 

------------------------------------------------------------

------------------------------------------------------------------------------
  Final output of selected total energy values:

  The following output summarizes some interesting total energy values
  at the end of a run (AFTER all relaxation, molecular dynamics, etc.).

  | Total energy of the DFT / Hartree-Fock s.c.f. calculation      :         -29333.616033762 eV
  | Final zero-broadening corrected energy (caution - metals only) :         -29333.616033762 eV
  | For reference only, the value of 1 Hartree used in FHI-aims is :             27.211384500 eV

  Before relying on these values, please be sure to understand exactly which
  total energy value is referred to by a given number. Different objects may
  all carry the same name 'total energy'. Definitions:

  Total energy of the DFT / Hartree-Fock s.c.f. calculation:
  | Note that this energy does not include ANY quantities calculated after the
  | s.c.f. cycle, in particular not ANY RPA, MP2, etc. many-body perturbation terms.
  | Scalar relativistic effects have been included in the 'scaled ZORA' approximation.

  Final zero-broadening corrected energy:
  | For metallic systems only, a broadening of the occupation numbers at the Fermi
  | level can be extrapolated back to zero broadening by an electron-gas inspired
  | formula. For all systems that are not real metals, this value can be
  | meaningless and should be avoided.

------------------------------------------------------------------------------
  Methods described in the following list of references were used in this FHI-aims run.
  If you publish the results, please make sure to cite these reference if they apply.
  FHI-aims is an academic code, and for our developers (often, Ph.D. students
  and postdocs), scientific credit in the community is essential.
  Thank you for helping us!

  For any use of FHI-aims, please cite:

    Volker Blum, Ralf Gehrke, Felix Hanke, Paula Havu, Ville Havu,
    Xinguo Ren, Karsten Reuter, and Matthias Scheffler
    'Ab initio molecular simulations with numeric atom-centered orbitals'
    Computer Physics Communications 180, 2175-2196 (2009)
    http://doi.org/10.1016/j.cpc.2009.06.022


  For calculations of electronic coupling values using the
  Fragment molecular orbital scheme (FO-DFT), please cite:

    Christoph Schober, Karsten Reuter, Harald Oberhofer
    'Critical analysis of fragment-orbital DFT schemes
    for the calculation of electronic coupling values'
    Journal of Chemical Physics, 144, 054103 (2016).


  The ELSI infrastructure was used in your run to solve the Kohn-Sham electronic structure.
  Please check out http://elsi-interchange.org to learn more.
  If scalability is important for your project, please acknowledge ELSI by citing:

    V. W-z. Yu, F. Corsetti, A. Garcia, W. P. Huhn, M. Jacquelin, W. Jia,
    B. Lange, L. Lin, J. Lu, W. Mi, A. Seifitokaldani, A. Vazquez-Mayagoitia,
    C. Yang, H. Yang, and V. Blum
    'ELSI: A unified software interface for Kohn-Sham electronic structure solvers'
    Computer Physics Communications 222, 267-285 (2018).
    http://doi.org/10.1016/j.cpc.2017.09.007


  For the real-space grid partitioning and parallelization used in this calculation, please cite:

    Ville Havu, Volker Blum, Paula Havu, and Matthias Scheffler,
    'Efficient O(N) integration for all-electron electronic structure calculation'
    'using numerically tabulated basis functions'
    Journal of Computational Physics 228, 8367-8379 (2009).
    http://doi.org/10.1016/j.jcp.2009.08.008

  Of course, there are many other important community references, e.g., those cited in the
  above references. Our list is limited to references that describe implementations in the
  FHI-aims code. The reason is purely practical (length of this list) - please credit others as well.

------------------------------------------------------------
          Leaving FHI-aims.
          Date     :  20241106, Time     :  124601.841

          Computational steps:
          | Number of self-consistency cycles          :           19
          | Number of SCF (re)initializations          :            1

          Detailed time accounting                     :  max(cpu_time)    wall_clock(cpu1)
          | Total time                                  :      296.897 s         296.967 s
          | Preparation time                            :        0.179 s           0.348 s
          | Boundary condition initalization            :        0.000 s           0.025 s
          | Grid partitioning                           :        1.762 s           1.775 s
          | Preloading free-atom quantities on grid     :        0.328 s           0.339 s
          | Free-atom superposition energy              :        0.127 s           0.152 s
          | Total time for integrations                 :       15.281 s          15.837 s
          | Total time for solution of K.-S. equations  :      221.371 s         221.944 s
          | Total time for density update               :        7.736 s           8.168 s
          | Total time for mixing                       :        1.506 s           1.983 s
          | Total time for Hartree multipole update     :       28.518 s          29.008 s
          | Total time for Hartree multipole sum        :        7.825 s           8.323 s
          | Total time for total energy evaluation      :        0.033 s           0.506 s
          | Total time for scaled ZORA corrections      :        1.382 s           0.526 s

          Partial memory accounting:
          | Residual value for overall tracked memory usage across tasks:     0.000000 MB (should be 0.000000 MB)
          | Peak values for overall tracked memory usage:
          |   Minimum:       10.325 MB (on task 52 after allocating zora_vector2)
          |   Maximum:       10.958 MB (on task 41 after allocating zora_vector2)
          |   Average:       10.685 MB
          | Largest tracked array allocation:
          |   Minimum:        2.161 MB (zora_vector1 on task 51)
          |   Maximum:        2.344 MB (zora_vector1 on task 41)
          |   Average:        2.259 MB
          Note:  These values currently only include a subset of arrays which are explicitly tracked.
          The "true" memory usage will be greater.

          Have a nice day.
------------------------------------------------------------
