------------------------------------------------------------
          Invoking FHI-aims ...

          When using FHI-aims, please cite the following reference:

            Volker Blum, Ralf Gehrke, Felix Hanke, Paula Havu,
            Ville Havu, Xinguo Ren, Karsten Reuter, and Matthias Scheffler,
            'Ab Initio Molecular Simulations with Numeric Atom-Centered Orbitals',
            Computer Physics Communications 180, 2175-2196 (2009)

          In addition, many other developments in FHI-aims are likely important for
          your particular application. A partial list of references is given at the end of
          this file. Thank you for giving credit to the authors of these developments.

          For any questions about FHI-aims, please visit our slack channel at

            https://fhi-aims.slack.com

          and our main development and support site at

            https://aims-git.rz-berlin.mpg.de .

          The latter site, in particular, has a wiki to collect information, as well
          as an issue tracker to log discussions, suggest improvements, and report issues
          or bugs. https://aims-git.rz-berlin.mpg.de is also the main development site
          of the project and all new and updated code versions can be obtained there.
          Please send an email to aims-coordinators@fhi-berlin.mpg.de and we will add
          you to these sites. They are for you and everyone is welcome there.

------------------------------------------------------------



  Date     :  20241106, Time     :  120628.448
  Time zero on CPU 1             :   0.352658000000000E+00  s.
  Internal wall clock time zero  :           500126788.448  s.

  FHI-aims created a unique identifier for this run for later identification
  aims_uuid : E894EC02-AFF7-4CD7-AABC-09A2AAABF536

  Build configuration of the current instance of FHI-aims
  -------------------------------------------------------
  FHI-aims version      : 221103
  Commit number         : GITDIR-NOTFOUND
  CMake host system     : Linux-3.10.0-1160.59.1.el7.x86_64
  CMake version         : 3.17.5
  Fortran compiler      : /home/spack/spack/opt/spack/linux-centos7-broadwell/gcc-8.2.0/intel-oneapi-mpi-2021.13.1-tc3o22m5brhwlepjze7ymovtbug6ollk/mpi/2021.13/bin/mpiifort (Intel) version 20.2.8.20221119
  Fortran compiler flags: -O3 -ip -fp-model precise
  C compiler            : /home/spack/spack/opt/spack/linux-centos7-broadwell/gcc-8.2.0/intel-oneapi-compilers-2023.0.0-qdtyksft5ugoazragh7yusjezd4gp7hm/compiler/2023.0.0/linux/bin/intel64/icc (Intel) version 20.2.8.20221119
  C compiler flags      : -O3 -ip -fp-model precise -std=gnu99
  HIP compiler          :
  HIP compiler flags    :
  HIP GPU arch          :
  Using MPI
  Using ScaLAPACK
  Using LibXC
  Using i-PI
  Using RLSY
  Linking against: /home/spack/spack/opt/spack/linux-centos7-broadwell/gcc-8.2.0/intel-oneapi-mkl-2024.2.1-2ept5lpbp5bastej6jsrfm45y5ab2lpn/mkl/latest/lib/intel64/libmkl_intel_lp64.so
                   /home/spack/spack/opt/spack/linux-centos7-broadwell/gcc-8.2.0/intel-oneapi-mkl-2024.2.1-2ept5lpbp5bastej6jsrfm45y5ab2lpn/mkl/latest/lib/intel64/libmkl_sequential.so
                   /home/spack/spack/opt/spack/linux-centos7-broadwell/gcc-8.2.0/intel-oneapi-mkl-2024.2.1-2ept5lpbp5bastej6jsrfm45y5ab2lpn/mkl/latest/lib/intel64/libmkl_core.so
                   /home/spack/spack/opt/spack/linux-centos7-broadwell/gcc-8.2.0/intel-oneapi-mkl-2024.2.1-2ept5lpbp5bastej6jsrfm45y5ab2lpn/mkl/latest/lib/intel64/libmkl_blacs_intelmpi_lp64.so
                   /home/spack/spack/opt/spack/linux-centos7-broadwell/gcc-8.2.0/intel-oneapi-mkl-2024.2.1-2ept5lpbp5bastej6jsrfm45y5ab2lpn/mkl/latest/lib/intel64/libmkl_scalapack_lp64.so

  Using       56 parallel tasks.
  Task        0 on host f001 reporting.
  Task        1 on host f001 reporting.
  Task        2 on host f001 reporting.
  Task        3 on host f001 reporting.
  Task        4 on host f001 reporting.
  Task        5 on host f001 reporting.
  Task        6 on host f001 reporting.
  Task        7 on host f001 reporting.
  Task        8 on host f001 reporting.
  Task        9 on host f001 reporting.
  Task       10 on host f001 reporting.
  Task       11 on host f001 reporting.
  Task       12 on host f001 reporting.
  Task       13 on host f001 reporting.
  Task       14 on host f001 reporting.
  Task       15 on host f001 reporting.
  Task       16 on host f001 reporting.
  Task       17 on host f001 reporting.
  Task       18 on host f001 reporting.
  Task       19 on host f001 reporting.
  Task       20 on host f001 reporting.
  Task       21 on host f001 reporting.
  Task       22 on host f001 reporting.
  Task       23 on host f001 reporting.
  Task       24 on host f001 reporting.
  Task       25 on host f001 reporting.
  Task       26 on host f001 reporting.
  Task       27 on host f001 reporting.
  Task       28 on host f001 reporting.
  Task       29 on host f001 reporting.
  Task       30 on host f001 reporting.
  Task       31 on host f001 reporting.
  Task       32 on host f001 reporting.
  Task       33 on host f001 reporting.
  Task       34 on host f001 reporting.
  Task       35 on host f001 reporting.
  Task       36 on host f001 reporting.
  Task       37 on host f001 reporting.
  Task       38 on host f001 reporting.
  Task       39 on host f001 reporting.
  Task       40 on host f001 reporting.
  Task       41 on host f001 reporting.
  Task       42 on host f001 reporting.
  Task       43 on host f001 reporting.
  Task       44 on host f001 reporting.
  Task       45 on host f001 reporting.
  Task       46 on host f001 reporting.
  Task       47 on host f001 reporting.
  Task       48 on host f001 reporting.
  Task       49 on host f001 reporting.
  Task       50 on host f001 reporting.
  Task       51 on host f001 reporting.
  Task       52 on host f001 reporting.
  Task       53 on host f001 reporting.
  Task       54 on host f001 reporting.
  Task       55 on host f001 reporting.

  Performing system and environment tests:
  *** Environment variable OMP_NUM_THREADS is not set
  *** For performance reasons you might want to set it to 1
  | Checking for ScaLAPACK...
  | Testing pdtran()...
  | All pdtran() tests passed.

  Obtaining array dimensions for all initial allocations:
  
  -----------------------------------------------------------------------
  Parsing control.in (first pass over file, find array dimensions only).
  The contents of control.in will be repeated verbatim below
  unless switched off by setting 'verbatim_writeout .false.' .
  in the first line of control.in .
  -----------------------------------------------------------------------
  
  #=====================================================
  #FHI-aims file: ./control.in
  #Created using the Atomic Simulation Environment (ASE)
  #
  #List of parameters used to initialize the calculator:
  #=====================================================
  packed_matrix_format               index
  relativistic                       zora scalar 1e-12
  sc_accuracy_eev                    1E-2
  fo_dft                             fragment
  charge                             1
  sc_iter_limit                      200
  n_max_pulay                        10
  occupation_type                    gaussian 0.01
  sc_accuracy_etot                   1E-6
  xc                                 blyp
  mixer                              pulay
  sc_accuracy_rho                    1E-4
  spin                               collinear
  charge_mix_param                   0.5
  default_initial_moment             1
  #=======================================================
  
  ################################################################################
  #
  #  FHI-aims code project
  #  VB, Fritz-Haber Institut, 2009
  #
  #  Suggested "light" defaults for H atom (to be pasted into control.in file)
  #  Be sure to double-check any results obtained with these settings for post-processing,
  #  e.g., with the "tight" defaults and larger basis sets.
  #
  ################################################################################
    species        H
  #     global species definitions
      nucleus             1
      mass                1.00794
  #
      l_hartree           4
  #
      cut_pot             3.5  1.5  1.0
      basis_dep_cutoff    1e-4
  #
      radial_base         24 5.0
      radial_multiplier   1
      angular_grids       specified
        division   0.2421   50
        division   0.3822  110
        division   0.4799  194
        division   0.5341  302
  #      division   0.5626  434
  #      division   0.5922  590
  #      division   0.6542  770
  #      division   0.6868 1202
  #      outer_grid  770
        outer_grid  302
  ################################################################################
  #
  #  Definition of "minimal" basis
  #
  ################################################################################
  #     valence basis states
      valence      1  s   1.
  #     ion occupancy
      ion_occ      1  s   0.5
  ################################################################################
  #
  #  Suggested additional basis functions. For production calculations,
  #  uncomment them one after another (the most important basis functions are
  #  listed first).
  #
  #  Basis constructed for dimers: 0.5 A, 0.7 A, 1.0 A, 1.5 A, 2.5 A
  #
  ################################################################################
  #  "First tier" - improvements: -1014.90 meV to -62.69 meV
       hydro 2 s 2.1
       hydro 2 p 3.5
  #  "Second tier" - improvements: -12.89 meV to -1.83 meV
  #     hydro 1 s 0.85
  #     hydro 2 p 3.7
  #     hydro 2 s 1.2
  #     hydro 3 d 7
  #  "Third tier" - improvements: -0.25 meV to -0.12 meV
  #     hydro 4 f 11.2
  #     hydro 3 p 4.8
  #     hydro 4 d 9
  #     hydro 3 s 3.2
  ################################################################################
  #
  #  FHI-aims code project
  #  VB, Fritz-Haber Institut, 2009
  #
  #  Suggested "light" defaults for C atom (to be pasted into control.in file)
  #  Be sure to double-check any results obtained with these settings for post-processing,
  #  e.g., with the "tight" defaults and larger basis sets.
  #
  ################################################################################
    species        C
  #     global species definitions
      nucleus             6
      mass                12.0107
  #
      l_hartree           4
  #
      cut_pot             3.5  1.5  1.0
      basis_dep_cutoff    1e-4
  #
      radial_base         34 5.0
      radial_multiplier   1
      angular_grids specified
        division   0.3326   50
        division   0.5710  110
        division   0.7727  194
        division   0.8772  302
  #      division   0.9334  434
  #      division   0.9625  590
  #      division   0.9924  770
  #      division   1.0230  974
  #      division   1.4589 1202
  #     outer_grid  974
       outer_grid 302
  ################################################################################
  #
  #  Definition of "minimal" basis
  #
  ################################################################################
  #     valence basis states
      valence      2  s   2.
      valence      2  p   2.
  #     ion occupancy
      ion_occ      2  s   1.
      ion_occ      2  p   1.
  ################################################################################
  #
  #  Suggested additional basis functions. For production calculations,
  #  uncomment them one after another (the most important basis functions are
  #  listed first).
  #
  #  Constructed for dimers: 1.0 A, 1.25 A, 1.5 A, 2.0 A, 3.0 A
  #
  ################################################################################
  #  "First tier" - improvements: -1214.57 meV to -155.61 meV
       hydro 2 p 1.7
       hydro 3 d 6
       hydro 2 s 4.9
  #  "Second tier" - improvements: -67.75 meV to -5.23 meV
  #     hydro 4 f 9.8
  #     hydro 3 p 5.2
  #     hydro 3 s 4.3
  #     hydro 5 g 14.4
  #     hydro 3 d 6.2
  #  "Third tier" - improvements: -2.43 meV to -0.60 meV
  #     hydro 2 p 5.6
  #     hydro 2 s 1.4
  #     hydro 3 d 4.9
  #     hydro 4 f 11.2
  #  "Fourth tier" - improvements: -0.39 meV to -0.18 meV
  #     hydro 2 p 2.1
  #     hydro 5 g 16.4
  #     hydro 4 d 13.2
  #     hydro 3 s 13.6
  #     hydro 4 f 17.6
  #  Further basis functions - improvements: -0.08 meV and below
  #     hydro 3 s 2
  #     hydro 3 p 6
  #     hydro 4 d 20
  
  -----------------------------------------------------------------------
  Completed first pass over input file control.in .
  -----------------------------------------------------------------------
  
  
  -----------------------------------------------------------------------
  Parsing geometry.in (first pass over file, find array dimensions only).
  The contents of geometry.in will be repeated verbatim below
  unless switched off by setting 'verbatim_writeout .false.' .
  in the first line of geometry.in .
  -----------------------------------------------------------------------
  
  #=======================================================
  #FHI-aims file: ./geometry.in
  #Created using the Atomic Simulation Environment (ASE)
  #=======================================================
  atom 50.3074639499999989 48.6494342995670763 14.4481730620123443 H
  atom 52.5067076300000011 46.6304174226350412 17.5717718836755346 H
  atom 52.5635548799999981 48.6765984659813427 18.8441730565713925 H
  atom 50.1098707499999989 46.9555542527846583 13.5095535813835230 H
  atom 50.0981092500000003 44.9082402929485980 12.1914102769829551 H
  atom 51.3492192100000011 42.8898709001914469 12.9640446962605260 H
  atom 52.6197748499999989 42.9929501895507684 15.1180009085021005 H
  atom 52.6494138300000003 45.0372282668715727 16.4379557824672133 H
  atom 50.8158743899999976 48.6296361252231861 15.4092107160023808 C
  atom 51.4109278800000027 47.4395280093699014 15.8815774799569560 C
  atom 52.0324839499999996 47.5095027993797814 17.1419770044877176 C
  atom 52.0640831799999972 48.6872956878709999 17.8777006938877250 C
  atom 51.3922663000000028 46.1893871716813251 15.0876571182960060 C
  atom 50.6832830800000025 46.1059879187900208 13.8725468328788200 C
  atom 50.6722272700000005 44.9373451379666307 13.1168958782688385 C
  atom 51.3685864799999976 43.8075849652481537 13.5509932351724434 C
  atom 52.0745901199999963 43.8641041648030381 14.7541018722245330 C
  atom 52.0849402400000017 45.0357680178272730 15.5081677034655385 C
  atom 53.4122647199999960 51.6314130816533847 22.0667288656977441 H
  atom 50.7362098300000000 58.3111808855869924 21.7109818924606195 H
  atom 50.2131367200000014 57.0861339099580647 19.6335644943209857 H
  atom 50.2665339300000014 55.0855726336322462 18.2696790584157078 H
  atom 50.3861091799999983 52.5553012312716632 16.9173423784843919 H
  atom 52.6510604400000020 50.4660493238938983 20.0196552577642031 H
  atom 50.3642327900000026 50.6894577881972737 15.7239709278417195 H
  atom 53.1018395299999995 52.6724337065803709 22.1496081732755847 C
  atom 52.3751356499999972 53.2603434703379435 21.1097672432279282 C
  atom 52.2757901800000013 55.3388831368468459 22.4519138443586890 C
  atom 51.8130927699999972 56.6741334015389810 22.5997832100645084 C
  atom 51.0907014399999966 57.2886907459346304 21.5954943327210067 C
  atom 50.7941548200000028 56.5963544180831093 20.4127658532700238 C
  atom 51.2102766900000006 55.2780669480978091 20.2254948495353979 C
  atom 50.8491202299999969 54.5668245153378280 19.0318969526971564 C
  atom 51.2052584500000023 53.2565797703923067 18.8770077549287336 C
  atom 50.9399190099999970 52.3234926871015986 17.8206362526046220 C
  atom 51.4999232300000003 51.1059142212815445 18.1777419030151535 C
  atom 52.1349658199999979 51.2582592246371078 19.4861480210063007 C
  atom 51.9674820600000018 54.6247177103750019 21.2537870236090924 C
  atom 51.9717162000000030 52.5573384994644002 19.9148106692162798 C
  atom 51.4717740399999997 49.8716757481259805 17.4021636831952016 C
  atom 50.8462190599999957 49.8062014096881427 16.1406319276865986 C
  atom 53.9491379899999970 52.8771204743823589 24.1174256127603677 H
  atom 53.2022043300000007 55.2164192553386783 24.4120321131941651 H
  atom 52.0233099800000005 57.1958166546095512 23.5338737667819693 H
  atom 53.4057566899999969 53.3777720120387045 23.3196556657747642 C
  atom 52.9991224299999999 54.6882204784952251 23.4806589108235215 C
  
  -----------------------------------------------------------------------
  Completed first pass over input file geometry.in .
  -----------------------------------------------------------------------
  

  Basic array size parameters:
  | Number of species                 :        2
  | Number of atoms                   :       46
  | Max. basis fn. angular momentum   :        2
  | Max. atomic/ionic basis occupied n:        2
  | Max. number of basis fn. types    :        2
  | Max. radial fns per species/type  :        3
  | Max. logarithmic grid size        :     1277
  | Max. radial integration grid size :       34
  | Max. angular integration grid size:      302
  | Max. angular grid division number :        8
  | Radial grid for Hartree potential :     1277
  | Number of spin channels           :        2

------------------------------------------------------------
          Reading file control.in.
------------------------------------------------------------
  Using packed matrix format  2
  Scalar relativistic treatment of kinetic energy: ZORA.
  Threshold value for ZORA:   0.100000E-11
  Convergence accuracy of sum of eigenvalues:  0.1000E-01
  Charged system requested: Charge =   0.100000E+01.
  Maximum number of s.-c. iterations  :   200
  Pulay mixing - number of memorized iterations:   10
  Occupation type: Gaussian broadening, width =   0.100000E-01 eV.
  Convergence accuracy of total energy:  0.1000E-05
  XC: Using BLYP gradient-corrected functional.
  Using pulay charge density mixing.
  Convergence accuracy of self-consistent charge density:  0.1000E-03
  Spin treatment: Spin density functional theory - collinear spins.
  Charge density mixing - mixing parameter:     0.5000
  Initial spin moment per atom:   1.0000
 
  Reading configuration options for species H                   .
  | Found nuclear charge :   1.0000
  | Found atomic mass :    1.00794000000000      amu
  | Found l_max for Hartree potential  :   4
  | Found cutoff potl. onset [A], width [A], scale factor :    3.50000    1.50000    1.00000
  | Threshold for basis-dependent cutoff potential is   0.100000E-03
  | Found data for basic radial integration grid :    24 points, outermost radius =    5.000 A
  | Found multiplier for basic radial grid :   1
  | Found angular grid specification: user-specified.
  | Specified grid contains     5 separate shells.
  | Check grid settings after all constraints further below.
  | Found free-atom valence shell :  1 s   1.000
  | No ionic wave fns used. Skipping ion_occ.
  | Found hydrogenic basis function :  2 s   2.100
  | Found hydrogenic basis function :  2 p   3.500
  Species H                   : Missing cutoff potential type.
  Defaulting to exp(1/x)/(1-x)^2 type cutoff potential.
  Species H : No 'logarithmic' tag. Using default grid for free atom:
  | Default logarithmic grid data [bohr] : 0.1000E-03 0.1000E+03 0.1012E+01
  Species H : On-site basis accuracy parameter (for Gram-Schmidt orthonormalisation) not specified.
  Using default value basis_acc =  0.1000000E-03.
  Species H                   : Using default innermost maximum threshold i_radial=  2 for radial functions.
  Species H                   : Default cutoff onset for free atom density etc. : 0.35000000E+01 AA.
  Species H                   : Basic radial grid will be enhanced according to radial_multiplier =   1, to contain    24 grid points.
 
  Reading configuration options for species C                   .
  | Found nuclear charge :   6.0000
  | Found atomic mass :    12.0107000000000      amu
  | Found l_max for Hartree potential  :   4
  | Found cutoff potl. onset [A], width [A], scale factor :    3.50000    1.50000    1.00000
  | Threshold for basis-dependent cutoff potential is   0.100000E-03
  | Found data for basic radial integration grid :    34 points, outermost radius =    5.000 A
  | Found multiplier for basic radial grid :   1
  | Found angular grid specification: user-specified.
  | Specified grid contains     5 separate shells.
  | Check grid settings after all constraints further below.
  | Found free-atom valence shell :  2 s   2.000
  | Found free-atom valence shell :  2 p   2.000
  | No ionic wave fns used. Skipping ion_occ.
  | No ionic wave fns used. Skipping ion_occ.
  | Found hydrogenic basis function :  2 p   1.700
  | Found hydrogenic basis function :  3 d   6.000
  | Found hydrogenic basis function :  2 s   4.900
  Species C                   : Missing cutoff potential type.
  Defaulting to exp(1/x)/(1-x)^2 type cutoff potential.
  Species C : No 'logarithmic' tag. Using default grid for free atom:
  | Default logarithmic grid data [bohr] : 0.1000E-03 0.1000E+03 0.1012E+01
  Species C : On-site basis accuracy parameter (for Gram-Schmidt orthonormalisation) not specified.
  Using default value basis_acc =  0.1000000E-03.
  Species C                   : Using default innermost maximum threshold i_radial=  2 for radial functions.
  Species C                   : Default cutoff onset for free atom density etc. : 0.35000000E+01 AA.
  Species C                   : Basic radial grid will be enhanced according to radial_multiplier =   1, to contain    34 grid points.
 
  Finished reading input file 'control.in'.
 
------------------------------------------------------------


------------------------------------------------------------
          Reading geometry description geometry.in.
------------------------------------------------------------
  | The smallest distance between any two atoms is         1.08461069 AA.
  | The first atom of this pair is atom number                     23 .
  | The second atom of this pair is atom number                    35 .
  Input structure read successfully.
  The structure contains       46 atoms,  and a total of        185.000 electrons.

  Input geometry:
  | No unit cell requested.
  | Atomic structure:
  |       Atom                x [A]            y [A]            z [A]
  |    1: Species H            50.30746395       48.64943430       14.44817306
  |    2: Species H            52.50670763       46.63041742       17.57177188
  |    3: Species H            52.56355488       48.67659847       18.84417306
  |    4: Species H            50.10987075       46.95555425       13.50955358
  |    5: Species H            50.09810925       44.90824029       12.19141028
  |    6: Species H            51.34921921       42.88987090       12.96404470
  |    7: Species H            52.61977485       42.99295019       15.11800091
  |    8: Species H            52.64941383       45.03722827       16.43795578
  |    9: Species C            50.81587439       48.62963613       15.40921072
  |   10: Species C            51.41092788       47.43952801       15.88157748
  |   11: Species C            52.03248395       47.50950280       17.14197700
  |   12: Species C            52.06408318       48.68729569       17.87770069
  |   13: Species C            51.39226630       46.18938717       15.08765712
  |   14: Species C            50.68328308       46.10598792       13.87254683
  |   15: Species C            50.67222727       44.93734514       13.11689588
  |   16: Species C            51.36858648       43.80758497       13.55099324
  |   17: Species C            52.07459012       43.86410416       14.75410187
  |   18: Species C            52.08494024       45.03576802       15.50816770
  |   19: Species H            53.41226472       51.63141308       22.06672887
  |   20: Species H            50.73620983       58.31118089       21.71098189
  |   21: Species H            50.21313672       57.08613391       19.63356449
  |   22: Species H            50.26653393       55.08557263       18.26967906
  |   23: Species H            50.38610918       52.55530123       16.91734238
  |   24: Species H            52.65106044       50.46604932       20.01965526
  |   25: Species H            50.36423279       50.68945779       15.72397093
  |   26: Species C            53.10183953       52.67243371       22.14960817
  |   27: Species C            52.37513565       53.26034347       21.10976724
  |   28: Species C            52.27579018       55.33888314       22.45191384
  |   29: Species C            51.81309277       56.67413340       22.59978321
  |   30: Species C            51.09070144       57.28869075       21.59549433
  |   31: Species C            50.79415482       56.59635442       20.41276585
  |   32: Species C            51.21027669       55.27806695       20.22549485
  |   33: Species C            50.84912023       54.56682452       19.03189695
  |   34: Species C            51.20525845       53.25657977       18.87700775
  |   35: Species C            50.93991901       52.32349269       17.82063625
  |   36: Species C            51.49992323       51.10591422       18.17774190
  |   37: Species C            52.13496582       51.25825922       19.48614802
  |   38: Species C            51.96748206       54.62471771       21.25378702
  |   39: Species C            51.97171620       52.55733850       19.91481067
  |   40: Species C            51.47177404       49.87167575       17.40216368
  |   41: Species C            50.84621906       49.80620141       16.14063193
  |   42: Species H            53.94913799       52.87712047       24.11742561
  |   43: Species H            53.20220433       55.21641926       24.41203211
  |   44: Species H            52.02330998       57.19581665       23.53387377
  |   45: Species C            53.40575669       53.37777201       23.31965567
  |   46: Species C            52.99912243       54.68822048       23.48065891

  Initial moments and charges:
  |  Atom   Moment         Charge        Species
  |     1   0.100000E+01   0.000000E+00   H
  |     2   0.100000E+01   0.000000E+00   H
  |     3   0.100000E+01   0.000000E+00   H
  |     4   0.100000E+01   0.000000E+00   H
  |     5   0.100000E+01   0.000000E+00   H
  |     6   0.100000E+01   0.000000E+00   H
  |     7   0.100000E+01   0.000000E+00   H
  |     8   0.100000E+01   0.000000E+00   H
  |     9   0.100000E+01   0.000000E+00   C
  |    10   0.100000E+01   0.000000E+00   C
  |    11   0.100000E+01   0.000000E+00   C
  |    12   0.100000E+01   0.000000E+00   C
  |    13   0.100000E+01   0.000000E+00   C
  |    14   0.100000E+01   0.000000E+00   C
  |    15   0.100000E+01   0.000000E+00   C
  |    16   0.100000E+01   0.000000E+00   C
  |    17   0.100000E+01   0.000000E+00   C
  |    18   0.100000E+01   0.000000E+00   C
  |    19   0.100000E+01   0.000000E+00   H
  |    20   0.100000E+01   0.000000E+00   H
  |    21   0.100000E+01   0.000000E+00   H
  |    22   0.100000E+01   0.000000E+00   H
  |    23   0.100000E+01   0.000000E+00   H
  |    24   0.100000E+01   0.000000E+00   H
  |    25   0.100000E+01   0.000000E+00   H
  |    26   0.100000E+01   0.000000E+00   C
  |    27   0.100000E+01   0.000000E+00   C
  |    28   0.100000E+01   0.000000E+00   C
  |    29   0.100000E+01   0.000000E+00   C
  |    30   0.100000E+01   0.000000E+00   C
  |    31   0.100000E+01   0.000000E+00   C
  |    32   0.100000E+01   0.000000E+00   C
  |    33   0.100000E+01   0.000000E+00   C
  |    34   0.100000E+01   0.000000E+00   C
  |    35   0.100000E+01   0.000000E+00   C
  |    36   0.100000E+01   0.000000E+00   C
  |    37   0.100000E+01   0.000000E+00   C
  |    38   0.100000E+01   0.000000E+00   C
  |    39   0.100000E+01   0.000000E+00   C
  |    40   0.100000E+01   0.000000E+00   C
  |    41   0.100000E+01   0.000000E+00   C
  |    42   0.100000E+01   0.000000E+00   H
  |    43   0.100000E+01   0.000000E+00   H
  |    44   0.100000E+01   0.000000E+00   H
  |    45   0.100000E+01   0.000000E+00   C
  |    46   0.100000E+01   0.000000E+00   C

 
  Finished reading input file 'geometry.in'.
 

 
  Consistency checks for stacksize environment parameter are next.
 
  | Maximum stacksize for task 0: unlimited
  | Maximum stacksize for task 1: unlimited
  | Maximum stacksize for task 2: unlimited
  | Maximum stacksize for task 3: unlimited
  | Maximum stacksize for task 4: unlimited
  | Maximum stacksize for task 5: unlimited
  | Maximum stacksize for task 6: unlimited
  | Maximum stacksize for task 7: unlimited
  | Maximum stacksize for task 8: unlimited
  | Maximum stacksize for task 9: unlimited
  | Maximum stacksize for task 10: unlimited
  | Maximum stacksize for task 11: unlimited
  | Maximum stacksize for task 12: unlimited
  | Maximum stacksize for task 13: unlimited
  | Maximum stacksize for task 14: unlimited
  | Maximum stacksize for task 15: unlimited
  | Maximum stacksize for task 16: unlimited
  | Maximum stacksize for task 17: unlimited
  | Maximum stacksize for task 18: unlimited
  | Maximum stacksize for task 19: unlimited
  | Maximum stacksize for task 20: unlimited
  | Maximum stacksize for task 21: unlimited
  | Maximum stacksize for task 22: unlimited
  | Maximum stacksize for task 23: unlimited
  | Maximum stacksize for task 24: unlimited
  | Maximum stacksize for task 25: unlimited
  | Maximum stacksize for task 26: unlimited
  | Maximum stacksize for task 27: unlimited
  | Maximum stacksize for task 28: unlimited
  | Maximum stacksize for task 29: unlimited
  | Maximum stacksize for task 30: unlimited
  | Maximum stacksize for task 31: unlimited
  | Maximum stacksize for task 32: unlimited
  | Maximum stacksize for task 33: unlimited
  | Maximum stacksize for task 34: unlimited
  | Maximum stacksize for task 35: unlimited
  | Maximum stacksize for task 36: unlimited
  | Maximum stacksize for task 37: unlimited
  | Maximum stacksize for task 38: unlimited
  | Maximum stacksize for task 39: unlimited
  | Maximum stacksize for task 40: unlimited
  | Maximum stacksize for task 41: unlimited
  | Maximum stacksize for task 42: unlimited
  | Maximum stacksize for task 43: unlimited
  | Maximum stacksize for task 44: unlimited
  | Maximum stacksize for task 45: unlimited
  | Maximum stacksize for task 46: unlimited
  | Maximum stacksize for task 47: unlimited
  | Maximum stacksize for task 48: unlimited
  | Maximum stacksize for task 49: unlimited
  | Maximum stacksize for task 50: unlimited
  | Maximum stacksize for task 51: unlimited
  | Maximum stacksize for task 52: unlimited
  | Maximum stacksize for task 53: unlimited
  | Maximum stacksize for task 54: unlimited
  | Maximum stacksize for task 55: unlimited
  | Current stacksize for task 0: unlimited
  | Current stacksize for task 1: unlimited
  | Current stacksize for task 2: unlimited
  | Current stacksize for task 3: unlimited
  | Current stacksize for task 4: unlimited
  | Current stacksize for task 5: unlimited
  | Current stacksize for task 6: unlimited
  | Current stacksize for task 7: unlimited
  | Current stacksize for task 8: unlimited
  | Current stacksize for task 9: unlimited
  | Current stacksize for task 10: unlimited
  | Current stacksize for task 11: unlimited
  | Current stacksize for task 12: unlimited
  | Current stacksize for task 13: unlimited
  | Current stacksize for task 14: unlimited
  | Current stacksize for task 15: unlimited
  | Current stacksize for task 16: unlimited
  | Current stacksize for task 17: unlimited
  | Current stacksize for task 18: unlimited
  | Current stacksize for task 19: unlimited
  | Current stacksize for task 20: unlimited
  | Current stacksize for task 21: unlimited
  | Current stacksize for task 22: unlimited
  | Current stacksize for task 23: unlimited
  | Current stacksize for task 24: unlimited
  | Current stacksize for task 25: unlimited
  | Current stacksize for task 26: unlimited
  | Current stacksize for task 27: unlimited
  | Current stacksize for task 28: unlimited
  | Current stacksize for task 29: unlimited
  | Current stacksize for task 30: unlimited
  | Current stacksize for task 31: unlimited
  | Current stacksize for task 32: unlimited
  | Current stacksize for task 33: unlimited
  | Current stacksize for task 34: unlimited
  | Current stacksize for task 35: unlimited
  | Current stacksize for task 36: unlimited
  | Current stacksize for task 37: unlimited
  | Current stacksize for task 38: unlimited
  | Current stacksize for task 39: unlimited
  | Current stacksize for task 40: unlimited
  | Current stacksize for task 41: unlimited
  | Current stacksize for task 42: unlimited
  | Current stacksize for task 43: unlimited
  | Current stacksize for task 44: unlimited
  | Current stacksize for task 45: unlimited
  | Current stacksize for task 46: unlimited
  | Current stacksize for task 47: unlimited
  | Current stacksize for task 48: unlimited
  | Current stacksize for task 49: unlimited
  | Current stacksize for task 50: unlimited
  | Current stacksize for task 51: unlimited
  | Current stacksize for task 52: unlimited
  | Current stacksize for task 53: unlimited
  | Current stacksize for task 54: unlimited
  | Current stacksize for task 55: unlimited
 
  Consistency checks for the contents of control.in are next.
 
  MPI_IN_PLACE appears to work with this MPI implementation.
  | Keeping use_mpi_in_place .true. (see manual).
  Target number of points in a grid batch is not set. Defaulting to  100
  Method for grid partitioning is not set. Defaulting to parallel hash+maxmin partitioning.
  Batch size limit is not set. Defaulting to    200
  By default, will store active basis functions for each batch.
  If in need of memory, prune_basis_once .false. can be used to disable this option.
  communication_type for Hartree potential was not specified.
  Defaulting to calc_hartree .
  Pulay mixer: Number of initial linear mixing iterations not set.
  Defaulting to    0 iterations.
  Work space size for distributed Hartree potential not set.
  Defaulting to   0.200000E+03 MB.
  Mixing parameter for spin density mixing has not been set.
  Using charge_mix_param as default:     0.5000.
  Algorithm-dependent basis array size parameters:
  | n_max_pulay                         :       10
  Presetting      1001 iterations before the initial mixing cycle
  is restarted anyway using the sc_init_iter criterion / keyword.
  Presetting a factor      1.000 between actual scf density residual
  and density convergence criterion sc_accuracy_rho below which sc_init_iter
  takes no effect.
  Calculation of forces was not defined in control.in. No forces will be calculated.
  Geometry relaxation not requested: no relaxation will be performed.
  No accuracy limit for integral partition fn. given. Defaulting to  0.1000E-14.
  No threshold value for u(r) in integrations given. Defaulting to  0.1000E-05.
  No accuracy for occupation numbers given. Defaulting to  0.1000E-12.
  No threshold value for occupation numbers given. Defaulting to  0.0000E+00.
  No accuracy for fermi level given. Defaulting to  0.1000E-19.
  Maximum # of iterations to find E_F not set. Defaulting to  200.
  Preferred method for the eigenvalue solver ('KS_method') not specified in 'control.in'.
  Calling BLACS routine to test compilation state
  Since ScaLAPACK support is enabled, defaulting to ELPA (via ELSI).
  Will not use alltoall communication since running on < 1024 CPUs.
  Threshold for basis singularities not set.
  Default threshold for basis singularities:  0.1000E-04
  partition_type (choice of integration weights) for integrals was not specified.
  | Using a version of the partition function of Stratmann and coworkers ('stratmann_sparse').
  | At each grid point, the set of atoms used to build the partition table is smoothly restricted to
  | only those atoms whose free-atom density would be non-zero at that grid point.
  Partitioning for Hartree potential was not defined. Using partition_type for integrals.
  | Adjusted default value of keyword multip_moments_threshold to:       0.10000000E-11
  | This value may affect high angular momentum components of the Hartree potential in periodic systems.
  No q(lm)/r^(l+1) cutoff set for long-range Hartree potential.
  | Using default value of  0.100000E-09 .
  | Verify using the multipole_threshold keyword.
  Defaulting to new monopole extrapolation.
  Density update method: automatic selection selected.
  Charge integration errors on the 3D integration grid will be compensated
  by explicit normalization and distribution of residual charges.
  Use the "compensate_multipole_errors" flag to change this behaviour.
  Set 'collect_eigenvectors' to be '.true.' for use_density_matrix .false.
  Set 'collect_eigenvectors' to be '.true.' for fo_dft.
 
  Consistency checks for the contents of geometry.in are next.
 
 * Warning: Initial charge and total charge of the system are inconsistent.
 * Selected charge in control.in:     1.0000* Sum of initial charges in geometry.in:     0.0000
  Number of empty states per atom not set in control.in - providing a guess from actual geometry.
  | Total number of empty states used during s.c.f. cycle:      111
  If you use a very high smearing, use empty_states (per atom!) in control.in to increase this value.

  Structure-dependent array size parameters: 
  | Number of distinct atom types in initial rho :        2
  | Maximum number of distinct radial functions  :        9
  | Maximum number of basis functions            :      482
  | Number of Kohn-Sham states (occupied + empty):      204
------------------------------------------------------------

------------------------------------------------------------
          Preparing all fixed parts of the calculation.
------------------------------------------------------------
  Determining machine precision:
    2.225073858507201E-308
  Setting up grids for atomic and cluster calculations.

  Creating wave function, potential, and density for free atoms.
  Runtime choices for atomic solver:
  | atomic solver xc        : BLYP
  | compute density gradient: 1
  | compute kinetic density : F

  Species: H

  List of occupied orbitals and eigenvalues:
    n    l              occ      energy [Ha]    energy [eV]
    1    0           1.0000        -0.238990        -6.5032


  Species: C

  List of occupied orbitals and eigenvalues:
    n    l              occ      energy [Ha]    energy [eV]
    1    0           2.0000       -10.067089      -273.9394
    2    0           2.0000        -0.497842       -13.5470
    2    1           2.0000        -0.189944        -5.1687

  Spin-polarized or charged system:
  Charge density initialized according to selected moments and charges.

  Creating spin-polarized density from free atoms.

  Species: H
  Charge:   0.000000
  Moment:   1.000000

  List of occupied orbitals and eigenvalues:
    n    l      energy [Ha]    energy [eV]    occupation
  Spin-up
    1    0        -0.271622        -7.3912     1.00000000
  Spin-down
    1    0         0.010752         0.2926     0.00000000


  Species: C
  Charge:   0.000000
  Moment:   1.000000

  List of occupied orbitals and eigenvalues:
    n    l      energy [Ha]    energy [eV]    occupation
  Spin-up
    1    0       -10.052093      -273.5314     1.00000000
    2    0        -0.512942       -13.9579     1.00000000
    2    1        -0.202181        -5.5016     1.50000000
  Spin-down
    1    0       -10.033506      -273.0256     1.00000000
    2    0        -0.456462       -12.4210     1.00000000
    2    1        -0.151185        -4.1140     0.50000000


  Adding cutoff potential to free-atom effective potential.
  Creating fixed part of basis set: Ionic, confined, hydrogenic.
 
  H                    hydrogenic:
 
  List of hydrogenic basis orbitals: 
    n    l      effective z      eigenvalue [eV]  inner max. [A]     outer max. [A]     outer radius [A]   
    2    0         2.100000       -14.9728           0.193243           1.317208           4.583499
    2    1         3.500000       -41.6669           0.602369           0.602369           3.723403
 
 
  C                    hydrogenic:
 
  List of hydrogenic basis orbitals: 
    n    l      effective z      eigenvalue [eV]  inner max. [A]     outer max. [A]     outer radius [A]   
    2    1         1.700000        -9.7616           1.230570           1.230570           4.607917
    3    2         6.000000       -54.4224           0.792453           0.792453           3.883070
    2    0         4.900000       -81.6679           0.082559           0.562749           3.078220
 
  Creating atomic-like basis functions for current effective potential.

  Species H                   :

  List of atomic basis orbitals and eigenvalues:
    n    l      energy [Ha]    energy [eV]    outer radius [A]
    1    0        -0.238990        -6.5032       4.527807


  Species C                   :

  List of atomic basis orbitals and eigenvalues:
    n    l      energy [Ha]    energy [eV]    outer radius [A]
    1    0       -10.067089      -273.9394       1.934409
    2    0        -0.497842       -13.5470       4.496620
    2    1        -0.189944        -5.1687       4.551928

  Assembling full basis from fixed parts.
  | Species H :   atomic orbital   1 s accepted.
  | Species H :    hydro orbital   2 s accepted.
  | Species H :    hydro orbital   2 p accepted.
  | Species C :   atomic orbital   1 s accepted.
  | Species C :    hydro orbital   2 s accepted.
  | Species C :   atomic orbital   2 s accepted.
  | Species C :   atomic orbital   2 p accepted.
  | Species C :    hydro orbital   2 p accepted.
  | Species C :    hydro orbital   3 d accepted.
 
  Basis size parameters after reduction:
  | Total number of radial functions:        9
  | Total number of basis functions :      482
 
  Per-task memory consumption for arrays in subroutine allocate_ext:
  |           2.218912MB.
  Testing on-site integration grid accuracy.
  |  Species  Function  <phi|h_atom|phi> (log., in eV)  <phi|h_atom|phi> (rad., in eV)
           1        1                 -6.5044527913                 -6.5032312304
           1        2                 13.5128264660                 13.5186953162
           1        3                 25.3317713414                 25.3319138181
           2        4               -273.9394205892               -273.9393868748
           2        5                -10.6145279052                -10.6144887969
           2        6                 17.1727568254                 17.1688026287
           2        7                 -5.1704957803                 -5.1720974370
           2        8                  8.7521213222                  8.7293892811
           2        9                 27.7044268360                 27.7044408576

  Preparing densities etc. for the partition functions (integrals / Hartree potential).

  Preparations completed.
  max(cpu_time)          :      0.178 s.
  Wall clock time (cpu1) :      0.322 s.
------------------------------------------------------------

  Initializing index lists of integration centers etc. from given atomic structure:
  | Number of centers in hartree potential         :        46
  | Number of centers in hartree multipole         :        46
  | Number of centers in electron density summation:        46
  | Number of centers in basis integrals           :        46
  | Number of centers in integrals                 :        46
  | Number of centers in hamiltonian               :        46

------------------------------------------------------------
          Begin self-consistency loop: Initialization.

          Date     :  20241106, Time     :  120629.634
------------------------------------------------------------
  * Using 56 tasks for Scalapack Eigenvalue solver.
  Detailed listing of tasks and assigned k-points:
  (for non-periodic systems, the "k-point" denotes an internal label only)
   Task     0 k-point     1 on f001
   Task     1 k-point     1 on f001
   Task     2 k-point     1 on f001
   Task     3 k-point     1 on f001
   Task     4 k-point     1 on f001
   Task     5 k-point     1 on f001
   Task     6 k-point     1 on f001
   Task     7 k-point     1 on f001
   Task     8 k-point     1 on f001
   Task     9 k-point     1 on f001
   Task    10 k-point     1 on f001
   Task    11 k-point     1 on f001
   Task    12 k-point     1 on f001
   Task    13 k-point     1 on f001
   Task    14 k-point     1 on f001
   Task    15 k-point     1 on f001
   Task    16 k-point     1 on f001
   Task    17 k-point     1 on f001
   Task    18 k-point     1 on f001
   Task    19 k-point     1 on f001
   Task    20 k-point     1 on f001
   Task    21 k-point     1 on f001
   Task    22 k-point     1 on f001
   Task    23 k-point     1 on f001
   Task    24 k-point     1 on f001
   Task    25 k-point     1 on f001
   Task    26 k-point     1 on f001
   Task    27 k-point     1 on f001
   Task    28 k-point     1 on f001
   Task    29 k-point     1 on f001
   Task    30 k-point     1 on f001
   Task    31 k-point     1 on f001
   Task    32 k-point     1 on f001
   Task    33 k-point     1 on f001
   Task    34 k-point     1 on f001
   Task    35 k-point     1 on f001
   Task    36 k-point     1 on f001
   Task    37 k-point     1 on f001
   Task    38 k-point     1 on f001
   Task    39 k-point     1 on f001
   Task    40 k-point     1 on f001
   Task    41 k-point     1 on f001
   Task    42 k-point     1 on f001
   Task    43 k-point     1 on f001
   Task    44 k-point     1 on f001
   Task    45 k-point     1 on f001
   Task    46 k-point     1 on f001
   Task    47 k-point     1 on f001
   Task    48 k-point     1 on f001
   Task    49 k-point     1 on f001
   Task    50 k-point     1 on f001
   Task    51 k-point     1 on f001
   Task    52 k-point     1 on f001
   Task    53 k-point     1 on f001
   Task    54 k-point     1 on f001
   Task    55 k-point     1 on f001
  Tasks:    56 split into      8 X      7 BLACS grid
  Calculating block size based on n_basis =          482  max_nprow =            8  max_npcol =            7
  ScaLAPACK block size set to:           16
  Allocating        0.039 MB for ovlp
  Allocating        0.078 MB for ham
  Allocating        0.078 MB for eigenvec
  Required Scalapack workspace - INTEGER:            1  REAL:             1
  Partitioning the integration grid into batches with parallel hashing+maxmin method.
  | Number of batches:     2294
  | Maximal batch size:     200
  | Minimal batch size:       3
  | Average batch size:     107.449
  | Standard deviation of batch sizes:      29.913

  Integration load balanced across    56 MPI tasks.
  Work distribution over tasks is as follows:
  Task     0 has       4382 integration points.
  Task     1 has       4383 integration points.
  Task     2 has       4419 integration points.
  Task     3 has       4417 integration points.
  Task     4 has       4396 integration points.
  Task     5 has       4357 integration points.
  Task     6 has       4361 integration points.
  Task     7 has       4416 integration points.
  Task     8 has       4400 integration points.
  Task     9 has       4470 integration points.
  Task    10 has       4402 integration points.
  Task    11 has       4402 integration points.
  Task    12 has       4399 integration points.
  Task    13 has       4402 integration points.
  Task    14 has       4391 integration points.
  Task    15 has       4381 integration points.
  Task    16 has       4396 integration points.
  Task    17 has       4369 integration points.
  Task    18 has       4388 integration points.
  Task    19 has       4487 integration points.
  Task    20 has       4356 integration points.
  Task    21 has       4375 integration points.
  Task    22 has       4406 integration points.
  Task    23 has       4380 integration points.
  Task    24 has       4397 integration points.
  Task    25 has       4411 integration points.
  Task    26 has       4406 integration points.
  Task    27 has       4407 integration points.
  Task    28 has       4420 integration points.
  Task    29 has       4420 integration points.
  Task    30 has       4444 integration points.
  Task    31 has       4415 integration points.
  Task    32 has       4384 integration points.
  Task    33 has       4399 integration points.
  Task    34 has       4442 integration points.
  Task    35 has       4400 integration points.
  Task    36 has       4446 integration points.
  Task    37 has       4385 integration points.
  Task    38 has       4406 integration points.
  Task    39 has       4377 integration points.
  Task    40 has       4414 integration points.
  Task    41 has       4410 integration points.
  Task    42 has       4366 integration points.
  Task    43 has       4394 integration points.
  Task    44 has       4399 integration points.
  Task    45 has       4410 integration points.
  Task    46 has       4422 integration points.
  Task    47 has       4402 integration points.
  Task    48 has       4434 integration points.
  Task    49 has       4403 integration points.
  Task    50 has       4408 integration points.
  Task    51 has       4403 integration points.
  Task    52 has       4396 integration points.
  Task    53 has       4375 integration points.
  Task    54 has       4394 integration points.
  Task    55 has       4364 integration points.
  Initializing partition tables, free-atom densities, potentials, etc. across the integration grid (initialize_grid_storage).
  | initialize_grid_storage: Actual outermost partition radius vs. multipole_radius_free
  | (-- VB: in principle, multipole_radius_free should be larger, hence this output)
  | Species        1: Confinement radius =              4.999999999999999 AA, multipole_radius_free =              5.054417573612229 AA.
  | Species        1: outer_partition_radius set to              5.054417573612229 AA .
  | Species        2: Confinement radius =              4.999999999999999 AA, multipole_radius_free =              5.019602836301480 AA.
  | Species        2: outer_partition_radius set to              5.019602836301480 AA .
  | The sparse table of interatomic distances needs         19.15 kbyte instead of        16.93 kbyte of memory.
  | Using the partition_type stratmann_smoother will reduce your memory usage.
  | Net number of integration points:   246488
  | of which are non-zero points    :   211059
  Renormalizing the initial density to the exact electron count on the 3D integration grid.
  | Initial density: Formal number of electrons (from input files) :     186.0000000000
  | Integrated number of electrons on 3D grid     :     185.9998744883
  | Charge integration error                      :      -0.0001255117
  | Normalization factor for density and gradient :       1.0000006748
  Renormalizing the free-atom superposition density to the exact electron count on the 3D integration grid.
  | Formal number of electrons (from input files) :     185.0000000000
  | Integrated number of electrons on 3D grid     :     185.9998301497
  | Charge integration error                      :      -0.0001698503
  | Normalization factor for density and gradient :       1.0000009132
  Obtaining max. number of non-zero basis functions in each batch (get_n_compute_maxes).
  | Maximal number of non-zero basis functions:      246 in task     0
  | Maximal number of non-zero basis functions:      237 in task     1
  | Maximal number of non-zero basis functions:      245 in task     2
  | Maximal number of non-zero basis functions:      241 in task     3
  | Maximal number of non-zero basis functions:      254 in task     4
  | Maximal number of non-zero basis functions:      241 in task     5
  | Maximal number of non-zero basis functions:      245 in task     6
  | Maximal number of non-zero basis functions:      246 in task     7
  | Maximal number of non-zero basis functions:      242 in task     8
  | Maximal number of non-zero basis functions:      246 in task     9
  | Maximal number of non-zero basis functions:      246 in task    10
  | Maximal number of non-zero basis functions:      251 in task    11
  | Maximal number of non-zero basis functions:      253 in task    12
  | Maximal number of non-zero basis functions:      239 in task    13
  | Maximal number of non-zero basis functions:      244 in task    14
  | Maximal number of non-zero basis functions:      235 in task    15
  | Maximal number of non-zero basis functions:      245 in task    16
  | Maximal number of non-zero basis functions:      251 in task    17
  | Maximal number of non-zero basis functions:      242 in task    18
  | Maximal number of non-zero basis functions:      250 in task    19
  | Maximal number of non-zero basis functions:      254 in task    20
  | Maximal number of non-zero basis functions:      246 in task    21
  | Maximal number of non-zero basis functions:      250 in task    22
  | Maximal number of non-zero basis functions:      243 in task    23
  | Maximal number of non-zero basis functions:      249 in task    24
  | Maximal number of non-zero basis functions:      248 in task    25
  | Maximal number of non-zero basis functions:      251 in task    26
  | Maximal number of non-zero basis functions:      245 in task    27
  | Maximal number of non-zero basis functions:      254 in task    28
  | Maximal number of non-zero basis functions:      236 in task    29
  | Maximal number of non-zero basis functions:      239 in task    30
  | Maximal number of non-zero basis functions:      236 in task    31
  | Maximal number of non-zero basis functions:      245 in task    32
  | Maximal number of non-zero basis functions:      243 in task    33
  | Maximal number of non-zero basis functions:      242 in task    34
  | Maximal number of non-zero basis functions:      240 in task    35
  | Maximal number of non-zero basis functions:      246 in task    36
  | Maximal number of non-zero basis functions:      253 in task    37
  | Maximal number of non-zero basis functions:      251 in task    38
  | Maximal number of non-zero basis functions:      238 in task    39
  | Maximal number of non-zero basis functions:      241 in task    40
  | Maximal number of non-zero basis functions:      247 in task    41
  | Maximal number of non-zero basis functions:      243 in task    42
  | Maximal number of non-zero basis functions:      252 in task    43
  | Maximal number of non-zero basis functions:      239 in task    44
  | Maximal number of non-zero basis functions:      242 in task    45
  | Maximal number of non-zero basis functions:      250 in task    46
  | Maximal number of non-zero basis functions:      247 in task    47
  | Maximal number of non-zero basis functions:      252 in task    48
  | Maximal number of non-zero basis functions:      251 in task    49
  | Maximal number of non-zero basis functions:      248 in task    50
  | Maximal number of non-zero basis functions:      252 in task    51
  | Maximal number of non-zero basis functions:      245 in task    52
  | Maximal number of non-zero basis functions:      250 in task    53
  | Maximal number of non-zero basis functions:      253 in task    54
  | Maximal number of non-zero basis functions:      248 in task    55
  Selecting the method for density update.
  Loop over occupied states selected for charge density update.
  Hamiltonian matrix size:
  | Size of matrix non-packed:                116403
  | Size of matrix packed:           80690
  Allocating        1.500 MB for KS_eigenvector
  Integrating Hamiltonian matrix: batch-based integration.
  Time summed over all CPUs for integration: real work       16.843 s, elapsed       30.741 s => Consider using load balancing!
  Integrating overlap matrix.
  Time summed over all CPUs for integration: real work        2.085 s, elapsed        4.314 s
  Decreasing sparse matrix size:
  | Tolerance:  0.1000E-12
  Hamiltonian matrix
  | Array has    78231 nonzero elements out of    80690 elements
  | Sparsity factor is 0.030
  Overlap matrix
  | Array has    76804 nonzero elements out of    80690 elements
  | Sparsity factor is 0.048
  New size of hamiltonian matrix:       78232
  Deallocating overlap matrix.

  Updating Kohn-Sham eigenvalues and eigenvectors using ELSI and the ELPA eigensolver.
  Overlap matrix is not singular
  | Lowest and highest eigenvalues :  0.8657E-03,  0.6930E+01
  Finished singularity check of overlap matrix
  | Time :     4.621 s
  Starting ELPA eigensolver
  Finished Cholesky decomposition
  | Time :     0.331 s
  Finished transformation to standard eigenproblem
  | Time :     0.552 s
  Finished solving standard eigenproblem
  | Time :     4.521 s
  Finished back-transformation of eigenvectors
  | Time :     0.225 s
  Starting ELPA eigensolver
  Finished transformation to standard eigenproblem
  | Time :     0.555 s
  Finished solving standard eigenproblem
  | Time :     4.558 s
  Finished back-transformation of eigenvectors
  | Time :     0.226 s

  Obtaining occupation numbers and electronic chemical potential using ELSI.
  | Note that, for insulating systems, the printed 'chemical potential' value is not uniquely defined.
  | It can be anywhere in the energy gap, as long as it correctly separates occupied and unoccupied states.
  | In systems with a gap, the physically relevant chemical potential is the VBM or HOMO.

  | Chemical potential (Fermi level):    -8.41096713 eV
  Writing Kohn-Sham eigenvalues.

  Spin-up eigenvalues:

  State    Occupation    Eigenvalue [Ha]    Eigenvalue [eV]
      1       1.00000         -10.195210         -277.42579
      2       1.00000         -10.194651         -277.41056
      3       1.00000         -10.193987         -277.39249
      4       1.00000         -10.193663         -277.38367
      5       1.00000         -10.193347         -277.37510
      6       1.00000         -10.193263         -277.37279
      7       1.00000         -10.193027         -277.36639
      8       1.00000         -10.192912         -277.36324
      9       1.00000         -10.192825         -277.36089
     10       1.00000         -10.192728         -277.35824
     11       1.00000         -10.192562         -277.35373
     12       1.00000         -10.192444         -277.35051
     13       1.00000         -10.192327         -277.34732
     14       1.00000         -10.192055         -277.33993
     15       1.00000         -10.191880         -277.33516
     16       1.00000         -10.191830         -277.33380
     17       1.00000         -10.190667         -277.30215
     18       1.00000         -10.190299         -277.29215
     19       1.00000         -10.188860         -277.25300
     20       1.00000         -10.188645         -277.24713
     21       1.00000         -10.188472         -277.24243
     22       1.00000         -10.187288         -277.21021
     23       1.00000         -10.187060         -277.20401
     24       1.00000         -10.187032         -277.20326
     25       1.00000         -10.185048         -277.14926
     26       1.00000         -10.184454         -277.13310
     27       1.00000         -10.184442         -277.13277
     28       1.00000         -10.184268         -277.12803
     29       1.00000          -1.031344          -28.06430
     30       1.00000          -1.012759          -27.55856
     31       1.00000          -1.006960          -27.40078
     32       1.00000          -0.994050          -27.04948
     33       1.00000          -0.974147          -26.50789
     34       1.00000          -0.948073          -25.79837
     35       1.00000          -0.924845          -25.16632
     36       1.00000          -0.908594          -24.72411
     37       1.00000          -0.905118          -24.62950
     38       1.00000          -0.898280          -24.44345
     39       1.00000          -0.895928          -24.37945
     40       1.00000          -0.888305          -24.17201
     41       1.00000          -0.866107          -23.56796
     42       1.00000          -0.853718          -23.23085
     43       1.00000          -0.811861          -22.09186
     44       1.00000          -0.795032          -21.63393
     45       1.00000          -0.781133          -21.25571
     46       1.00000          -0.779175          -21.20243
     47       1.00000          -0.766260          -20.85098
     48       1.00000          -0.759550          -20.66841
     49       1.00000          -0.747770          -20.34785
     50       1.00000          -0.745921          -20.29754
     51       1.00000          -0.708151          -19.26978
     52       1.00000          -0.700081          -19.05017
     53       1.00000          -0.689137          -18.75236
     54       1.00000          -0.680793          -18.52533
     55       1.00000          -0.674741          -18.36064
     56       1.00000          -0.668288          -18.18505
     57       1.00000          -0.656267          -17.85794
     58       1.00000          -0.650563          -17.70273
     59       1.00000          -0.641343          -17.45184
     60       1.00000          -0.632729          -17.21742
     61       1.00000          -0.623004          -16.95280
     62       1.00000          -0.617663          -16.80747
     63       1.00000          -0.612069          -16.65525
     64       1.00000          -0.610844          -16.62192
     65       1.00000          -0.605212          -16.46865
     66       1.00000          -0.600528          -16.34120
     67       1.00000          -0.596062          -16.21967
     68       1.00000          -0.592100          -16.11187
     69       1.00000          -0.588417          -16.01165
     70       1.00000          -0.577091          -15.70344
     71       1.00000          -0.568494          -15.46951
     72       1.00000          -0.563975          -15.34653
     73       1.00000          -0.553626          -15.06494
     74       1.00000          -0.548384          -14.92228
     75       1.00000          -0.543069          -14.77766
     76       1.00000          -0.538176          -14.64451
     77       1.00000          -0.535213          -14.56390
     78       1.00000          -0.525989          -14.31288
     79       1.00000          -0.525334          -14.29507
     80       1.00000          -0.517790          -14.08979
     81       1.00000          -0.514690          -14.00542
     82       1.00000          -0.513615          -13.97618
     83       1.00000          -0.498559          -13.56649
     84       1.00000          -0.483051          -13.14447
     85       1.00000          -0.457583          -12.45148
     86       1.00000          -0.434126          -11.81316
     87       1.00000          -0.423535          -11.52498
     88       1.00000          -0.416058          -11.32151
     89       1.00000          -0.412275          -11.21857
     90       1.00000          -0.408239          -11.10874
     91       1.00000          -0.398608          -10.84667
     92       1.00000          -0.368425          -10.02536
     93       1.00000          -0.359949           -9.79472
     94       0.00000          -0.302539           -8.23249
     95       0.00000          -0.258779           -7.04172
     96       0.00000          -0.230153           -6.26279
     97       0.00000          -0.228722           -6.22383
     98       0.00000          -0.225956           -6.14858
     99       0.00000          -0.218193           -5.93733
    100       0.00000          -0.203625           -5.54093
    101       0.00000          -0.194722           -5.29864
    102       0.00000          -0.143217           -3.89712
    103       0.00000          -0.124991           -3.40117
    104       0.00000          -0.111429           -3.03214
    105       0.00000          -0.087286           -2.37518
    106       0.00000          -0.081798           -2.22584
    107       0.00000          -0.077153           -2.09943
    108       0.00000          -0.071779           -1.95320
    109       0.00000          -0.069407           -1.88867
    110       0.00000          -0.057708           -1.57032
    111       0.00000          -0.052548           -1.42991
    112       0.00000          -0.048162           -1.31056
    113       0.00000          -0.042963           -1.16910
    114       0.00000          -0.038092           -1.03653
    115       0.00000          -0.029496           -0.80263
    116       0.00000          -0.024772           -0.67408
    117       0.00000          -0.024356           -0.66276
    118       0.00000          -0.020619           -0.56107
    119       0.00000          -0.012201           -0.33201
    120       0.00000          -0.009052           -0.24632
    121       0.00000          -0.002752           -0.07489
    122       0.00000           0.005489            0.14936
    123       0.00000           0.012712            0.34592
    124       0.00000           0.014682            0.39953
    125       0.00000           0.019752            0.53748
    126       0.00000           0.029272            0.79652
    127       0.00000           0.030672            0.83462
    128       0.00000           0.037666            1.02494
    129       0.00000           0.040025            1.08913
    130       0.00000           0.046665            1.26982
    131       0.00000           0.059857            1.62880
    132       0.00000           0.061317            1.66853
    133       0.00000           0.069511            1.89149
    134       0.00000           0.077698            2.11426
    135       0.00000           0.080613            2.19360
    136       0.00000           0.086253            2.34706
    137       0.00000           0.094989            2.58478
    138       0.00000           0.100882            2.74515
    139       0.00000           0.105330            2.86618
    140       0.00000           0.120323            3.27415
    141       0.00000           0.126210            3.43435
    142       0.00000           0.137838            3.75077
    143       0.00000           0.144001            3.91847
    144       0.00000           0.153026            4.16405
    145       0.00000           0.155493            4.23117
    146       0.00000           0.157450            4.28444
    147       0.00000           0.161029            4.38182
    148       0.00000           0.162055            4.40973
    149       0.00000           0.164404            4.47366
    150       0.00000           0.174001            4.73480
    151       0.00000           0.176001            4.78923
    152       0.00000           0.180609            4.91463
    153       0.00000           0.188969            5.14212
    154       0.00000           0.190419            5.18158
    155       0.00000           0.195728            5.32602
    156       0.00000           0.200911            5.46706
    157       0.00000           0.203087            5.52628
    158       0.00000           0.204503            5.56481
    159       0.00000           0.211194            5.74688
    160       0.00000           0.220484            5.99966
    161       0.00000           0.222688            6.05964
    162       0.00000           0.225397            6.13336
    163       0.00000           0.227900            6.20146
    164       0.00000           0.232454            6.32539
    165       0.00000           0.234440            6.37943
    166       0.00000           0.240959            6.55683
    167       0.00000           0.244782            6.66085
    168       0.00000           0.245719            6.68636
    169       0.00000           0.248874            6.77220
    170       0.00000           0.254370            6.92176
    171       0.00000           0.261517            7.11624
    172       0.00000           0.264813            7.20593
    173       0.00000           0.268815            7.31482
    174       0.00000           0.269554            7.33494
    175       0.00000           0.272267            7.40875
    176       0.00000           0.274294            7.46391
    177       0.00000           0.276046            7.51158
    178       0.00000           0.277068            7.53941
    179       0.00000           0.279770            7.61293
    180       0.00000           0.281185            7.65142
    181       0.00000           0.289386            7.87459
    182       0.00000           0.293574            7.98856
    183       0.00000           0.294628            8.01723
    184       0.00000           0.303546            8.25991
    185       0.00000           0.307531            8.36833
    186       0.00000           0.311978            8.48934
    187       0.00000           0.319782            8.70171
    188       0.00000           0.325807            8.86565
    189       0.00000           0.328833            8.94800
    190       0.00000           0.332760            9.05486
    191       0.00000           0.336891            9.16726
    192       0.00000           0.359966            9.79517
    193       0.00000           0.363803            9.89960
    194       0.00000           0.380482           10.35345
    195       0.00000           0.385279           10.48396
    196       0.00000           0.386855           10.52686
    197       0.00000           0.401312           10.92025
    198       0.00000           0.405029           11.02141
    199       0.00000           0.421455           11.46838
    200       0.00000           0.430404           11.71190
    201       0.00000           0.446369           12.14631
    202       0.00000           0.462125           12.57506
    203       0.00000           0.473566           12.88639
    204       0.00000           0.493416           13.42654

  Spin-down eigenvalues:

  State    Occupation    Eigenvalue [Ha]    Eigenvalue [eV]
      1       1.00000         -10.179301         -276.99287
      2       1.00000         -10.178749         -276.97786
      3       1.00000         -10.178091         -276.95993
      4       1.00000         -10.177771         -276.95125
      5       1.00000         -10.177462         -276.94284
      6       1.00000         -10.177380         -276.94061
      7       1.00000         -10.177145         -276.93420
      8       1.00000         -10.177037         -276.93127
      9       1.00000         -10.176952         -276.92895
     10       1.00000         -10.176856         -276.92633
     11       1.00000         -10.176694         -276.92194
     12       1.00000         -10.176569         -276.91853
     13       1.00000         -10.176462         -276.91561
     14       1.00000         -10.176184         -276.90805
     15       1.00000         -10.176087         -276.90541
     16       1.00000         -10.175970         -276.90224
     17       1.00000         -10.175399         -276.88670
     18       1.00000         -10.174490         -276.86196
     19       1.00000         -10.173697         -276.84039
     20       1.00000         -10.173484         -276.83459
     21       1.00000         -10.172681         -276.81273
     22       1.00000         -10.172128         -276.79768
     23       1.00000         -10.171913         -276.79182
     24       1.00000         -10.171882         -276.79098
     25       1.00000         -10.169946         -276.73830
     26       1.00000         -10.169325         -276.72140
     27       1.00000         -10.169319         -276.72125
     28       1.00000         -10.169143         -276.71645
     29       1.00000          -0.970302          -26.40325
     30       1.00000          -0.950457          -25.86326
     31       1.00000          -0.943918          -25.68531
     32       1.00000          -0.930110          -25.30959
     33       1.00000          -0.909122          -24.73846
     34       1.00000          -0.884347          -24.06431
     35       1.00000          -0.860336          -23.41093
     36       1.00000          -0.841902          -22.90932
     37       1.00000          -0.832349          -22.64937
     38       1.00000          -0.827891          -22.52805
     39       1.00000          -0.825716          -22.46886
     40       1.00000          -0.822169          -22.37235
     41       1.00000          -0.798680          -21.73318
     42       1.00000          -0.784431          -21.34545
     43       1.00000          -0.741368          -20.17365
     44       1.00000          -0.724421          -19.71251
     45       1.00000          -0.708226          -19.27180
     46       1.00000          -0.702107          -19.10531
     47       1.00000          -0.694312          -18.89319
     48       1.00000          -0.684927          -18.63782
     49       1.00000          -0.670266          -18.23887
     50       1.00000          -0.667009          -18.15024
     51       1.00000          -0.631440          -17.18236
     52       1.00000          -0.618227          -16.82282
     53       1.00000          -0.602624          -16.39823
     54       1.00000          -0.601671          -16.37229
     55       1.00000          -0.593193          -16.14160
     56       1.00000          -0.586138          -15.94963
     57       1.00000          -0.580092          -15.78509
     58       1.00000          -0.567735          -15.44886
     59       1.00000          -0.555365          -15.11224
     60       1.00000          -0.546414          -14.86869
     61       1.00000          -0.532179          -14.48134
     62       1.00000          -0.530893          -14.44634
     63       1.00000          -0.516699          -14.06010
     64       1.00000          -0.514450          -13.99890
     65       1.00000          -0.503053          -13.68877
     66       1.00000          -0.498467          -13.56398
     67       1.00000          -0.494999          -13.46961
     68       1.00000          -0.491471          -13.37361
     69       1.00000          -0.487533          -13.26645
     70       1.00000          -0.482816          -13.13810
     71       1.00000          -0.473255          -12.87792
     72       1.00000          -0.468843          -12.75786
     73       1.00000          -0.461968          -12.57078
     74       1.00000          -0.461286          -12.55223
     75       1.00000          -0.460083          -12.51950
     76       1.00000          -0.454076          -12.35604
     77       1.00000          -0.448826          -12.21318
     78       1.00000          -0.445054          -12.11053
     79       1.00000          -0.434945          -11.83545
     80       1.00000          -0.429190          -11.67884
     81       1.00000          -0.427649          -11.63692
     82       1.00000          -0.424481          -11.55071
     83       1.00000          -0.418848          -11.39744
     84       1.00000          -0.405200          -11.02605
     85       1.00000          -0.404238          -10.99988
     86       1.00000          -0.380232          -10.34665
     87       1.00000          -0.369010          -10.04126
     88       1.00000          -0.360051           -9.79748
     89       1.00000          -0.355937           -9.68555
     90       1.00000          -0.353241           -9.61217
     91       1.00000          -0.344081           -9.36293
     92       1.00000          -0.312937           -8.51546
     93       0.00000          -0.304199           -8.27769
     94       0.00000          -0.245874           -6.69057
     95       0.00000          -0.202608           -5.51325
     96       0.00000          -0.172668           -4.69855
     97       0.00000          -0.172030           -4.68119
     98       0.00000          -0.168794           -4.59312
     99       0.00000          -0.159341           -4.33590
    100       0.00000          -0.146801           -3.99465
    101       0.00000          -0.137251           -3.73479
    102       0.00000          -0.084274           -2.29321
    103       0.00000          -0.065425           -1.78030
    104       0.00000          -0.052796           -1.43664
    105       0.00000          -0.026669           -0.72570
    106       0.00000          -0.001041           -0.02832
    107       0.00000          -0.000657           -0.01789
    108       0.00000           0.007887            0.21461
    109       0.00000           0.010838            0.29492
    110       0.00000           0.013038            0.35477
    111       0.00000           0.021750            0.59185
    112       0.00000           0.023130            0.62941
    113       0.00000           0.034169            0.92980
    114       0.00000           0.035619            0.96925
    115       0.00000           0.039138            1.06500
    116       0.00000           0.042447            1.15504
    117       0.00000           0.047343            1.28828
    118       0.00000           0.051739            1.40788
    119       0.00000           0.056968            1.55017
    120       0.00000           0.064158            1.74584
    121       0.00000           0.068558            1.86555
    122       0.00000           0.072493            1.97265
    123       0.00000           0.081092            2.20664
    124       0.00000           0.088105            2.39745
    125       0.00000           0.091457            2.48866
    126       0.00000           0.094659            2.57581
    127       0.00000           0.102456            2.78796
    128       0.00000           0.110679            3.01172
    129       0.00000           0.112185            3.05270
    130       0.00000           0.117269            3.19106
    131       0.00000           0.128260            3.49013
    132       0.00000           0.136465            3.71341
    133       0.00000           0.145188            3.95078
    134       0.00000           0.149032            4.05536
    135       0.00000           0.151104            4.11175
    136       0.00000           0.155816            4.23996
    137       0.00000           0.171146            4.65713
    138       0.00000           0.173316            4.71616
    139       0.00000           0.175011            4.76229
    140       0.00000           0.179357            4.88056
    141       0.00000           0.186276            5.06883
    142       0.00000           0.188996            5.14285
    143       0.00000           0.195509            5.32008
    144       0.00000           0.203318            5.53257
    145       0.00000           0.206512            5.61947
    146       0.00000           0.208789            5.68144
    147       0.00000           0.209475            5.70011
    148       0.00000           0.214884            5.84728
    149       0.00000           0.220590            6.00255
    150       0.00000           0.225163            6.12699
    151       0.00000           0.228134            6.20783
    152       0.00000           0.230282            6.26630
    153       0.00000           0.239308            6.51190
    154       0.00000           0.239851            6.52667
    155       0.00000           0.242017            6.58563
    156       0.00000           0.244936            6.66504
    157       0.00000           0.249729            6.79548
    158       0.00000           0.252646            6.87485
    159       0.00000           0.262276            7.13690
    160       0.00000           0.269315            7.32843
    161       0.00000           0.271151            7.37840
    162       0.00000           0.275954            7.50908
    163       0.00000           0.281022            7.64698
    164       0.00000           0.286546            7.79732
    165       0.00000           0.289520            7.87823
    166       0.00000           0.293952            7.99884
[...]
     35       1.00000          -0.821997          -22.36768
     36       1.00000          -0.811589          -22.08445
     37       1.00000          -0.794686          -21.62450
     38       1.00000          -0.793812          -21.60073
     39       1.00000          -0.781604          -21.26853
     40       1.00000          -0.773927          -21.05962
     41       1.00000          -0.759113          -20.65652
     42       1.00000          -0.751890          -20.45997
     43       1.00000          -0.711976          -19.37387
     44       1.00000          -0.690391          -18.78651
     45       1.00000          -0.679872          -18.50027
     46       1.00000          -0.674239          -18.34697
     47       1.00000          -0.657458          -17.89035
     48       1.00000          -0.655855          -17.84673
     49       1.00000          -0.632648          -17.21524
     50       1.00000          -0.631426          -17.18197
     51       1.00000          -0.611155          -16.63037
     52       1.00000          -0.603551          -16.42346
     53       1.00000          -0.582837          -15.85980
     54       1.00000          -0.578001          -15.72820
     55       1.00000          -0.571929          -15.56297
     56       1.00000          -0.566064          -15.40340
     57       1.00000          -0.549598          -14.95531
     58       1.00000          -0.533958          -14.52974
     59       1.00000          -0.532556          -14.49157
     60       1.00000          -0.528324          -14.37641
     61       1.00000          -0.507585          -13.81208
     62       1.00000          -0.504323          -13.72333
     63       1.00000          -0.498218          -13.55720
     64       1.00000          -0.497059          -13.52566
     65       1.00000          -0.494652          -13.46017
     66       1.00000          -0.490601          -13.34993
     67       1.00000          -0.490220          -13.33956
     68       1.00000          -0.486028          -13.22549
     69       1.00000          -0.477442          -12.99186
     70       1.00000          -0.469838          -12.78495
     71       1.00000          -0.467762          -12.72844
     72       1.00000          -0.465910          -12.67807
     73       1.00000          -0.465255          -12.66023
     74       1.00000          -0.453548          -12.34167
     75       1.00000          -0.449948          -12.24370
     76       1.00000          -0.443424          -12.06618
     77       1.00000          -0.434220          -11.81572
     78       1.00000          -0.427356          -11.62894
     79       1.00000          -0.423107          -11.51333
     80       1.00000          -0.421489          -11.46931
     81       1.00000          -0.413320          -11.24701
     82       1.00000          -0.408554          -11.11732
     83       1.00000          -0.407030          -11.07585
     84       1.00000          -0.396658          -10.79361
     85       1.00000          -0.393611          -10.71071
     86       1.00000          -0.367183           -9.99156
     87       1.00000          -0.362202           -9.85602
     88       1.00000          -0.344752           -9.38118
     89       1.00000          -0.343219           -9.33946
     90       1.00000          -0.327497           -8.91166
     91       1.00000          -0.326142           -8.87479
     92       1.00000          -0.299919           -8.16121
     93       0.00000          -0.290926           -7.91650
     94       0.00000          -0.238043           -6.47747
     95       0.00000          -0.187530           -5.10295
     96       0.00000          -0.160945           -4.37954
     97       0.00000          -0.157379           -4.28250
     98       0.00000          -0.153646           -4.18091
     99       0.00000          -0.136771           -3.72173
    100       0.00000          -0.130505           -3.55122
    101       0.00000          -0.117861           -3.20716
    102       0.00000          -0.068388           -1.86094
    103       0.00000          -0.060929           -1.65796
    104       0.00000          -0.053131           -1.44575
    105       0.00000          -0.051777           -1.40893
    106       0.00000          -0.047099           -1.28163
    107       0.00000          -0.040748           -1.10881
    108       0.00000          -0.037911           -1.03160
    109       0.00000          -0.030635           -0.83363
    110       0.00000          -0.021903           -0.59602
    111       0.00000          -0.015494           -0.42162
    112       0.00000          -0.008549           -0.23264
    113       0.00000          -0.001380           -0.03754
    114       0.00000           0.003150            0.08572
    115       0.00000           0.017386            0.47309
    116       0.00000           0.027401            0.74561
    117       0.00000           0.032460            0.88329
    118       0.00000           0.039416            1.07256
    119       0.00000           0.042475            1.15579
    120       0.00000           0.046604            1.26817
    121       0.00000           0.054536            1.48399
    122       0.00000           0.057223            1.55712
    123       0.00000           0.064689            1.76029
    124       0.00000           0.068714            1.86980
    125       0.00000           0.082633            2.24857
    126       0.00000           0.087768            2.38829
    127       0.00000           0.095483            2.59822
    128       0.00000           0.100922            2.74623
    129       0.00000           0.109085            2.96834
    130       0.00000           0.116495            3.17000
    131       0.00000           0.126042            3.42977
    132       0.00000           0.128060            3.48468
    133       0.00000           0.130414            3.54876
    134       0.00000           0.140354            3.81922
    135       0.00000           0.144990            3.94537
    136       0.00000           0.149947            4.08026
    137       0.00000           0.152150            4.14022
    138       0.00000           0.157965            4.29844
    139       0.00000           0.160888            4.37799
    140       0.00000           0.167617            4.56110
    141       0.00000           0.168370            4.58159
    142       0.00000           0.169204            4.60427
    143       0.00000           0.174290            4.74266
    144       0.00000           0.181345            4.93464
    145       0.00000           0.187104            5.09136
    146       0.00000           0.193258            5.25881
    147       0.00000           0.199088            5.41747
    148       0.00000           0.201298            5.47761
    149       0.00000           0.206076            5.60761
    150       0.00000           0.211195            5.74692
    151       0.00000           0.214909            5.84797
    152       0.00000           0.219663            5.97735
    153       0.00000           0.222936            6.06639
    154       0.00000           0.228772            6.22520
    155       0.00000           0.233086            6.34259
    156       0.00000           0.236562            6.43719
    157       0.00000           0.243692            6.63120
    158       0.00000           0.248416            6.75975
    159       0.00000           0.255236            6.94532
    160       0.00000           0.257664            7.01140
    161       0.00000           0.261949            7.12799
    162       0.00000           0.269044            7.32107
    163       0.00000           0.277786            7.55895
    164       0.00000           0.279949            7.61780
    165       0.00000           0.284601            7.74439
    166       0.00000           0.286941            7.80806
    167       0.00000           0.288909            7.86161
    168       0.00000           0.289047            7.86538
    169       0.00000           0.294163            8.00458
    170       0.00000           0.299081            8.13841
    171       0.00000           0.301143            8.19452
    172       0.00000           0.306660            8.34464
    173       0.00000           0.321143            8.73876
    174       0.00000           0.325931            8.86903
    175       0.00000           0.332493            9.04758
    176       0.00000           0.335141            9.11966
    177       0.00000           0.335842            9.13872
    178       0.00000           0.340173            9.25657
    179       0.00000           0.343541            9.34824
    180       0.00000           0.347779            9.46356
    181       0.00000           0.349078            9.49889
    182       0.00000           0.352820            9.60073
    183       0.00000           0.355900            9.68454
    184       0.00000           0.362538            9.86516
    185       0.00000           0.365229            9.93839
    186       0.00000           0.370949           10.09404
    187       0.00000           0.386937           10.52910
    188       0.00000           0.397921           10.82798
    189       0.00000           0.405355           11.03027
    190       0.00000           0.410850           11.17980
    191       0.00000           0.430666           11.71903
    192       0.00000           0.430964           11.72712
    193       0.00000           0.435228           11.84316
    194       0.00000           0.436762           11.88491
    195       0.00000           0.455941           12.40680
    196       0.00000           0.465016           12.65372
    197       0.00000           0.469459           12.77464
    198       0.00000           0.480351           13.07101
    199       0.00000           0.481425           13.10025
    200       0.00000           0.492511           13.40191
    201       0.00000           0.496898           13.52127
    202       0.00000           0.503275           13.69482
    203       0.00000           0.515755           14.03441
    204       0.00000           0.537123           14.61586

  Current spin moment of the entire structure :
  | N = N_up - N_down :    1.00
  | S                 :    0.50
  | J                 :    2.00

  Highest occupied state (VBM) at     -8.16121293 eV
  | Occupation number:      1.00000000
  | Spin channel:        2

  Lowest unoccupied state (CBM) at    -7.91650385 eV
  | Occupation number:      0.00000000
  | Spin channel:        2

  Overall HOMO-LUMO gap:      0.24470907 eV.

  Total energy components:
  | Sum of eigenvalues            :        -635.14229835 Ha      -17283.10129258 eV
  | XC energy correction          :        -158.24413106 Ha       -4306.04189506 eV
  | XC potential correction       :         202.62316477 Ha        5513.65684516 eV
  | Free-atom electrostatic energy:        -471.06753378 Ha      -12818.39978723 eV
  | Hartree energy correction     :         -16.15978350 Ha        -439.73008213 eV
  | Entropy correction            :          -0.00000000 Ha          -0.00000000 eV
  | ---------------------------
  | Total energy                  :       -1077.99058191 Ha      -29333.61621184 eV
  | Total energy, T -> 0          :       -1077.99058191 Ha      -29333.61621184 eV  <-- do not rely on this value for anything but (periodic) metals
  | Electronic free energy        :       -1077.99058191 Ha      -29333.61621184 eV

  Derived energy quantities:
  | Kinetic energy                :        1076.60577517 Ha       29295.93370306 eV
  | Electrostatic energy          :       -1996.35222603 Ha      -54323.50801984 eV
  | Energy correction for multipole
  | error in Hartree potential    :           0.38226997 Ha          10.40209504 eV
  | Sum of eigenvalues per atom                           :        -375.71959332 eV
  | Total energy (T->0) per atom                          :        -637.68730895 eV  <-- do not rely on this value for anything but (periodic) metals
  | Electronic free energy per atom                       :        -637.68730895 eV
  End evaluation of scaled ZORA corrections.
  | Time for scaled ZORA corrections            :        1.479 s           0.609 s
------------------------------------------------------------

  Energy and forces in a compact form:
  | Total energy uncorrected      :         -0.293336162118441E+05 eV
  | Total energy corrected        :         -0.293336162118441E+05 eV  <-- do not rely on this value for anything but (periodic) metals
  | Electronic free energy        :         -0.293336162118441E+05 eV

  ------------------------------------ 
  Start decomposition of the XC Energy 
  ------------------------------------ 
  X and C from original XC functional choice 
  Hartree-Fock Energy :          0.000000000 Ha              0.000000000 eV
  X Energy            :       -151.961334697 Ha          -4135.078307572 eV
  C Energy            :         -6.282796360 Ha           -170.963587487 eV
  XC Energy w/o HF    :       -158.244131057 Ha          -4306.041895059 eV
  Total XC Energy     :       -158.244131057 Ha          -4306.041895059 eV
  ------------------------------------ 
  LDA X and C from self-consistent density 
  X Energy LDA        :       -136.829694636 Ha          -3723.325431769 eV
  C Energy LDA        :        -11.935526006 Ha           -324.782187352 eV
  ------------------------------------ 
  End decomposition of the XC Energy 
  ------------------------------------ 

------------------------------------------------------------

------------------------------------------------------------------------------
  Final output of selected total energy values:

  The following output summarizes some interesting total energy values
  at the end of a run (AFTER all relaxation, molecular dynamics, etc.).

  | Total energy of the DFT / Hartree-Fock s.c.f. calculation      :         -29333.616211844 eV
  | Final zero-broadening corrected energy (caution - metals only) :         -29333.616211844 eV
  | For reference only, the value of 1 Hartree used in FHI-aims is :             27.211384500 eV

  Before relying on these values, please be sure to understand exactly which
  total energy value is referred to by a given number. Different objects may
  all carry the same name 'total energy'. Definitions:

  Total energy of the DFT / Hartree-Fock s.c.f. calculation:
  | Note that this energy does not include ANY quantities calculated after the
  | s.c.f. cycle, in particular not ANY RPA, MP2, etc. many-body perturbation terms.
  | Scalar relativistic effects have been included in the 'scaled ZORA' approximation.

  Final zero-broadening corrected energy:
  | For metallic systems only, a broadening of the occupation numbers at the Fermi
  | level can be extrapolated back to zero broadening by an electron-gas inspired
  | formula. For all systems that are not real metals, this value can be
  | meaningless and should be avoided.

------------------------------------------------------------------------------
  Methods described in the following list of references were used in this FHI-aims run.
  If you publish the results, please make sure to cite these reference if they apply.
  FHI-aims is an academic code, and for our developers (often, Ph.D. students
  and postdocs), scientific credit in the community is essential.
  Thank you for helping us!

  For any use of FHI-aims, please cite:

    Volker Blum, Ralf Gehrke, Felix Hanke, Paula Havu, Ville Havu,
    Xinguo Ren, Karsten Reuter, and Matthias Scheffler
    'Ab initio molecular simulations with numeric atom-centered orbitals'
    Computer Physics Communications 180, 2175-2196 (2009)
    http://doi.org/10.1016/j.cpc.2009.06.022


  For calculations of electronic coupling values using the
  Fragment molecular orbital scheme (FO-DFT), please cite:

    Christoph Schober, Karsten Reuter, Harald Oberhofer
    'Critical analysis of fragment-orbital DFT schemes
    for the calculation of electronic coupling values'
    Journal of Chemical Physics, 144, 054103 (2016).


  The ELSI infrastructure was used in your run to solve the Kohn-Sham electronic structure.
  Please check out http://elsi-interchange.org to learn more.
  If scalability is important for your project, please acknowledge ELSI by citing:

    V. W-z. Yu, F. Corsetti, A. Garcia, W. P. Huhn, M. Jacquelin, W. Jia,
    B. Lange, L. Lin, J. Lu, W. Mi, A. Seifitokaldani, A. Vazquez-Mayagoitia,
    C. Yang, H. Yang, and V. Blum
    'ELSI: A unified software interface for Kohn-Sham electronic structure solvers'
    Computer Physics Communications 222, 267-285 (2018).
    http://doi.org/10.1016/j.cpc.2017.09.007


  For the real-space grid partitioning and parallelization used in this calculation, please cite:

    Ville Havu, Volker Blum, Paula Havu, and Matthias Scheffler,
    'Efficient O(N) integration for all-electron electronic structure calculation'
    'using numerically tabulated basis functions'
    Journal of Computational Physics 228, 8367-8379 (2009).
    http://doi.org/10.1016/j.jcp.2009.08.008

  Of course, there are many other important community references, e.g., those cited in the
  above references. Our list is limited to references that describe implementations in the
  FHI-aims code. The reason is purely practical (length of this list) - please credit others as well.

------------------------------------------------------------
          Leaving FHI-aims.
          Date     :  20241106, Time     :  121128.504

          Computational steps:
          | Number of self-consistency cycles          :           19
          | Number of SCF (re)initializations          :            1

          Detailed time accounting                     :  max(cpu_time)    wall_clock(cpu1)
          | Total time                                  :      300.002 s         300.056 s
          | Preparation time                            :        0.178 s           0.322 s
          | Boundary condition initalization            :        0.000 s           0.025 s
          | Grid partitioning                           :        1.559 s           1.561 s
          | Preloading free-atom quantities on grid     :        0.342 s           0.376 s
          | Free-atom superposition energy              :        0.156 s           0.182 s
          | Total time for integrations                 :       15.401 s          15.976 s
          | Total time for solution of K.-S. equations  :      223.243 s         223.766 s
          | Total time for density update               :        7.931 s           8.342 s
          | Total time for mixing                       :        1.460 s           1.963 s
          | Total time for Hartree multipole update     :       29.171 s          29.690 s
          | Total time for Hartree multipole sum        :        8.024 s           8.559 s
          | Total time for total energy evaluation      :        0.013 s           0.544 s
          | Total time for scaled ZORA corrections      :        1.479 s           0.609 s

          Partial memory accounting:
          | Residual value for overall tracked memory usage across tasks:     0.000000 MB (should be 0.000000 MB)
          | Peak values for overall tracked memory usage:
          |   Minimum:       10.364 MB (on task 31 after allocating zora_vector2)
          |   Maximum:       10.938 MB (on task 28 after allocating zora_vector2)
          |   Average:       10.658 MB
          | Largest tracked array allocation:
          |   Minimum:        2.151 MB (zora_vector1 on task 15)
          |   Maximum:        2.325 MB (zora_vector1 on task  4)
          |   Average:        2.251 MB
          Note:  These values currently only include a subset of arrays which are explicitly tracked.
          The "true" memory usage will be greater.

          Have a nice day.
------------------------------------------------------------
