------------------------------------------------------------
          Invoking FHI-aims ...

          When using FHI-aims, please cite the following reference:

            Volker Blum, Ralf Gehrke, Felix Hanke, Paula Havu,
            Ville Havu, Xinguo Ren, Karsten Reuter, and Matthias Scheffler,
            'Ab Initio Molecular Simulations with Numeric Atom-Centered Orbitals',
            Computer Physics Communications 180, 2175-2196 (2009)

          In addition, many other developments in FHI-aims are likely important for
          your particular application. A partial list of references is given at the end of
          this file. Thank you for giving credit to the authors of these developments.

          For any questions about FHI-aims, please visit our slack channel at

            https://fhi-aims.slack.com

          and our main development and support site at

            https://aims-git.rz-berlin.mpg.de .

          The latter site, in particular, has a wiki to collect information, as well
          as an issue tracker to log discussions, suggest improvements, and report issues
          or bugs. https://aims-git.rz-berlin.mpg.de is also the main development site
          of the project and all new and updated code versions can be obtained there.
          Please send an email to aims-coordinators@fhi-berlin.mpg.de and we will add
          you to these sites. They are for you and everyone is welcome there.

------------------------------------------------------------



  Date     :  20241106, Time     :  131650.563
  Time zero on CPU 1             :   0.357765000000000E+00  s.
  Internal wall clock time zero  :           500131010.563  s.

  FHI-aims created a unique identifier for this run for later identification
  aims_uuid : FB99F47F-EE63-4097-A81C-59A4B26DBA0A

  Build configuration of the current instance of FHI-aims
  -------------------------------------------------------
  FHI-aims version      : 221103
  Commit number         : GITDIR-NOTFOUND
  CMake host system     : Linux-3.10.0-1160.59.1.el7.x86_64
  CMake version         : 3.17.5
  Fortran compiler      : /home/spack/spack/opt/spack/linux-centos7-broadwell/gcc-8.2.0/intel-oneapi-mpi-2021.13.1-tc3o22m5brhwlepjze7ymovtbug6ollk/mpi/2021.13/bin/mpiifort (Intel) version 20.2.8.20221119
  Fortran compiler flags: -O3 -ip -fp-model precise
  C compiler            : /home/spack/spack/opt/spack/linux-centos7-broadwell/gcc-8.2.0/intel-oneapi-compilers-2023.0.0-qdtyksft5ugoazragh7yusjezd4gp7hm/compiler/2023.0.0/linux/bin/intel64/icc (Intel) version 20.2.8.20221119
  C compiler flags      : -O3 -ip -fp-model precise -std=gnu99
  HIP compiler          :
  HIP compiler flags    :
  HIP GPU arch          :
  Using MPI
  Using ScaLAPACK
  Using LibXC
  Using i-PI
  Using RLSY
  Linking against: /home/spack/spack/opt/spack/linux-centos7-broadwell/gcc-8.2.0/intel-oneapi-mkl-2024.2.1-2ept5lpbp5bastej6jsrfm45y5ab2lpn/mkl/latest/lib/intel64/libmkl_intel_lp64.so
                   /home/spack/spack/opt/spack/linux-centos7-broadwell/gcc-8.2.0/intel-oneapi-mkl-2024.2.1-2ept5lpbp5bastej6jsrfm45y5ab2lpn/mkl/latest/lib/intel64/libmkl_sequential.so
                   /home/spack/spack/opt/spack/linux-centos7-broadwell/gcc-8.2.0/intel-oneapi-mkl-2024.2.1-2ept5lpbp5bastej6jsrfm45y5ab2lpn/mkl/latest/lib/intel64/libmkl_core.so
                   /home/spack/spack/opt/spack/linux-centos7-broadwell/gcc-8.2.0/intel-oneapi-mkl-2024.2.1-2ept5lpbp5bastej6jsrfm45y5ab2lpn/mkl/latest/lib/intel64/libmkl_blacs_intelmpi_lp64.so
                   /home/spack/spack/opt/spack/linux-centos7-broadwell/gcc-8.2.0/intel-oneapi-mkl-2024.2.1-2ept5lpbp5bastej6jsrfm45y5ab2lpn/mkl/latest/lib/intel64/libmkl_scalapack_lp64.so

  Using       56 parallel tasks.
  Task        0 on host f001 reporting.
  Task        1 on host f001 reporting.
  Task        2 on host f001 reporting.
  Task        3 on host f001 reporting.
  Task        4 on host f001 reporting.
  Task        5 on host f001 reporting.
  Task        6 on host f001 reporting.
  Task        7 on host f001 reporting.
  Task        8 on host f001 reporting.
  Task        9 on host f001 reporting.
  Task       10 on host f001 reporting.
  Task       11 on host f001 reporting.
  Task       12 on host f001 reporting.
  Task       13 on host f001 reporting.
  Task       14 on host f001 reporting.
  Task       15 on host f001 reporting.
  Task       16 on host f001 reporting.
  Task       17 on host f001 reporting.
  Task       18 on host f001 reporting.
  Task       19 on host f001 reporting.
  Task       20 on host f001 reporting.
  Task       21 on host f001 reporting.
  Task       22 on host f001 reporting.
  Task       23 on host f001 reporting.
  Task       24 on host f001 reporting.
  Task       25 on host f001 reporting.
  Task       26 on host f001 reporting.
  Task       27 on host f001 reporting.
  Task       28 on host f001 reporting.
  Task       29 on host f001 reporting.
  Task       30 on host f001 reporting.
  Task       31 on host f001 reporting.
  Task       32 on host f001 reporting.
  Task       33 on host f001 reporting.
  Task       34 on host f001 reporting.
  Task       35 on host f001 reporting.
  Task       36 on host f001 reporting.
  Task       37 on host f001 reporting.
  Task       38 on host f001 reporting.
  Task       39 on host f001 reporting.
  Task       40 on host f001 reporting.
  Task       41 on host f001 reporting.
  Task       42 on host f001 reporting.
  Task       43 on host f001 reporting.
  Task       44 on host f001 reporting.
  Task       45 on host f001 reporting.
  Task       46 on host f001 reporting.
  Task       47 on host f001 reporting.
  Task       48 on host f001 reporting.
  Task       49 on host f001 reporting.
  Task       50 on host f001 reporting.
  Task       51 on host f001 reporting.
  Task       52 on host f001 reporting.
  Task       53 on host f001 reporting.
  Task       54 on host f001 reporting.
  Task       55 on host f001 reporting.

  Performing system and environment tests:
  *** Environment variable OMP_NUM_THREADS is not set
  *** For performance reasons you might want to set it to 1
  | Checking for ScaLAPACK...
  | Testing pdtran()...
  | All pdtran() tests passed.

  Obtaining array dimensions for all initial allocations:
  
  -----------------------------------------------------------------------
  Parsing control.in (first pass over file, find array dimensions only).
  The contents of control.in will be repeated verbatim below
  unless switched off by setting 'verbatim_writeout .false.' .
  in the first line of control.in .
  -----------------------------------------------------------------------
  
  #=====================================================
  #FHI-aims file: ./control.in
  #Created using the Atomic Simulation Environment (ASE)
  #
  #List of parameters used to initialize the calculator:
  #=====================================================
  packed_matrix_format               index
  relativistic                       zora scalar 1e-12
  sc_accuracy_eev                    1E-2
  fo_dft                             fragment
  charge                             0
  sc_iter_limit                      200
  n_max_pulay                        10
  occupation_type                    gaussian 0.01
  sc_accuracy_etot                   1E-6
  xc                                 blyp
  mixer                              pulay
  sc_accuracy_rho                    1E-4
  spin                               collinear
  charge_mix_param                   0.5
  default_initial_moment             0
  #=======================================================
  
  ################################################################################
  #
  #  FHI-aims code project
  #  VB, Fritz-Haber Institut, 2009
  #
  #  Suggested "light" defaults for H atom (to be pasted into control.in file)
  #  Be sure to double-check any results obtained with these settings for post-processing,
  #  e.g., with the "tight" defaults and larger basis sets.
  #
  ################################################################################
    species        H
  #     global species definitions
      nucleus             1
      mass                1.00794
  #
      l_hartree           4
  #
      cut_pot             3.5  1.5  1.0
      basis_dep_cutoff    1e-4
  #
      radial_base         24 5.0
      radial_multiplier   1
      angular_grids       specified
        division   0.2421   50
        division   0.3822  110
        division   0.4799  194
        division   0.5341  302
  #      division   0.5626  434
  #      division   0.5922  590
  #      division   0.6542  770
  #      division   0.6868 1202
  #      outer_grid  770
        outer_grid  302
  ################################################################################
  #
  #  Definition of "minimal" basis
  #
  ################################################################################
  #     valence basis states
      valence      1  s   1.
  #     ion occupancy
      ion_occ      1  s   0.5
  ################################################################################
  #
  #  Suggested additional basis functions. For production calculations,
  #  uncomment them one after another (the most important basis functions are
  #  listed first).
  #
  #  Basis constructed for dimers: 0.5 A, 0.7 A, 1.0 A, 1.5 A, 2.5 A
  #
  ################################################################################
  #  "First tier" - improvements: -1014.90 meV to -62.69 meV
       hydro 2 s 2.1
       hydro 2 p 3.5
  #  "Second tier" - improvements: -12.89 meV to -1.83 meV
  #     hydro 1 s 0.85
  #     hydro 2 p 3.7
  #     hydro 2 s 1.2
  #     hydro 3 d 7
  #  "Third tier" - improvements: -0.25 meV to -0.12 meV
  #     hydro 4 f 11.2
  #     hydro 3 p 4.8
  #     hydro 4 d 9
  #     hydro 3 s 3.2
  ################################################################################
  #
  #  FHI-aims code project
  #  VB, Fritz-Haber Institut, 2009
  #
  #  Suggested "light" defaults for C atom (to be pasted into control.in file)
  #  Be sure to double-check any results obtained with these settings for post-processing,
  #  e.g., with the "tight" defaults and larger basis sets.
  #
  ################################################################################
    species        C
  #     global species definitions
      nucleus             6
      mass                12.0107
  #
      l_hartree           4
  #
      cut_pot             3.5  1.5  1.0
      basis_dep_cutoff    1e-4
  #
      radial_base         34 5.0
      radial_multiplier   1
      angular_grids specified
        division   0.3326   50
        division   0.5710  110
        division   0.7727  194
        division   0.8772  302
  #      division   0.9334  434
  #      division   0.9625  590
  #      division   0.9924  770
  #      division   1.0230  974
  #      division   1.4589 1202
  #     outer_grid  974
       outer_grid 302
  ################################################################################
  #
  #  Definition of "minimal" basis
  #
  ################################################################################
  #     valence basis states
      valence      2  s   2.
      valence      2  p   2.
  #     ion occupancy
      ion_occ      2  s   1.
      ion_occ      2  p   1.
  ################################################################################
  #
  #  Suggested additional basis functions. For production calculations,
  #  uncomment them one after another (the most important basis functions are
  #  listed first).
  #
  #  Constructed for dimers: 1.0 A, 1.25 A, 1.5 A, 2.0 A, 3.0 A
  #
  ################################################################################
  #  "First tier" - improvements: -1214.57 meV to -155.61 meV
       hydro 2 p 1.7
       hydro 3 d 6
       hydro 2 s 4.9
  #  "Second tier" - improvements: -67.75 meV to -5.23 meV
  #     hydro 4 f 9.8
  #     hydro 3 p 5.2
  #     hydro 3 s 4.3
  #     hydro 5 g 14.4
  #     hydro 3 d 6.2
  #  "Third tier" - improvements: -2.43 meV to -0.60 meV
  #     hydro 2 p 5.6
  #     hydro 2 s 1.4
  #     hydro 3 d 4.9
  #     hydro 4 f 11.2
  #  "Fourth tier" - improvements: -0.39 meV to -0.18 meV
  #     hydro 2 p 2.1
  #     hydro 5 g 16.4
  #     hydro 4 d 13.2
  #     hydro 3 s 13.6
  #     hydro 4 f 17.6
  #  Further basis functions - improvements: -0.08 meV and below
  #     hydro 3 s 2
  #     hydro 3 p 6
  #     hydro 4 d 20
  
  -----------------------------------------------------------------------
  Completed first pass over input file control.in .
  -----------------------------------------------------------------------
  
  
  -----------------------------------------------------------------------
  Parsing geometry.in (first pass over file, find array dimensions only).
  The contents of geometry.in will be repeated verbatim below
  unless switched off by setting 'verbatim_writeout .false.' .
  in the first line of geometry.in .
  -----------------------------------------------------------------------
  
  #=======================================================
  #FHI-aims file: ./geometry.in
  #Created using the Atomic Simulation Environment (ASE)
  #=======================================================
  atom 50.3074639499999989 48.6494342995670763 14.4481730620123443 H
  atom 52.5067076300000011 46.6304174226350412 17.5717718836755346 H
  atom 52.5635548799999981 48.6765984659813427 18.8441730565713925 H
  atom 50.1098707499999989 46.9555542527846583 13.5095535813835230 H
  atom 50.0981092500000003 44.9082402929485980 12.1914102769829551 H
  atom 51.3492192100000011 42.8898709001914469 12.9640446962605260 H
  atom 52.6197748499999989 42.9929501895507684 15.1180009085021005 H
  atom 52.6494138300000003 45.0372282668715727 16.4379557824672133 H
  atom 50.8158743899999976 48.6296361252231861 15.4092107160023808 C
  atom 51.4109278800000027 47.4395280093699014 15.8815774799569560 C
  atom 52.0324839499999996 47.5095027993797814 17.1419770044877176 C
  atom 52.0640831799999972 48.6872956878709999 17.8777006938877250 C
  atom 51.3922663000000028 46.1893871716813251 15.0876571182960060 C
  atom 50.6832830800000025 46.1059879187900208 13.8725468328788200 C
  atom 50.6722272700000005 44.9373451379666307 13.1168958782688385 C
  atom 51.3685864799999976 43.8075849652481537 13.5509932351724434 C
  atom 52.0745901199999963 43.8641041648030381 14.7541018722245330 C
  atom 52.0849402400000017 45.0357680178272730 15.5081677034655385 C
  atom 53.4122647199999960 51.6314130816533847 22.0667288656977441 H
  atom 50.7362098300000000 58.3111808855869924 21.7109818924606195 H
  atom 50.2131367200000014 57.0861339099580647 19.6335644943209857 H
  atom 50.2665339300000014 55.0855726336322462 18.2696790584157078 H
  atom 50.3861091799999983 52.5553012312716632 16.9173423784843919 H
  atom 52.6510604400000020 50.4660493238938983 20.0196552577642031 H
  atom 50.3642327900000026 50.6894577881972737 15.7239709278417195 H
  atom 53.1018395299999995 52.6724337065803709 22.1496081732755847 C
  atom 52.3751356499999972 53.2603434703379435 21.1097672432279282 C
  atom 52.2757901800000013 55.3388831368468459 22.4519138443586890 C
  atom 51.8130927699999972 56.6741334015389810 22.5997832100645084 C
  atom 51.0907014399999966 57.2886907459346304 21.5954943327210067 C
  atom 50.7941548200000028 56.5963544180831093 20.4127658532700238 C
  atom 51.2102766900000006 55.2780669480978091 20.2254948495353979 C
  atom 50.8491202299999969 54.5668245153378280 19.0318969526971564 C
  atom 51.2052584500000023 53.2565797703923067 18.8770077549287336 C
  atom 50.9399190099999970 52.3234926871015986 17.8206362526046220 C
  atom 51.4999232300000003 51.1059142212815445 18.1777419030151535 C
  atom 52.1349658199999979 51.2582592246371078 19.4861480210063007 C
  atom 51.9674820600000018 54.6247177103750019 21.2537870236090924 C
  atom 51.9717162000000030 52.5573384994644002 19.9148106692162798 C
  atom 51.4717740399999997 49.8716757481259805 17.4021636831952016 C
  atom 50.8462190599999957 49.8062014096881427 16.1406319276865986 C
  atom 53.9491379899999970 52.8771204743823589 24.1174256127603677 H
  atom 53.2022043300000007 55.2164192553386783 24.4120321131941651 H
  atom 52.0233099800000005 57.1958166546095512 23.5338737667819693 H
  atom 53.4057566899999969 53.3777720120387045 23.3196556657747642 C
  atom 52.9991224299999999 54.6882204784952251 23.4806589108235215 C
  
  -----------------------------------------------------------------------
  Completed first pass over input file geometry.in .
  -----------------------------------------------------------------------
  

  Basic array size parameters:
  | Number of species                 :        2
  | Number of atoms                   :       46
  | Max. basis fn. angular momentum   :        2
  | Max. atomic/ionic basis occupied n:        2
  | Max. number of basis fn. types    :        2
  | Max. radial fns per species/type  :        3
  | Max. logarithmic grid size        :     1277
  | Max. radial integration grid size :       34
  | Max. angular integration grid size:      302
  | Max. angular grid division number :        8
  | Radial grid for Hartree potential :     1277
  | Number of spin channels           :        2

------------------------------------------------------------
          Reading file control.in.
------------------------------------------------------------
  Using packed matrix format  2
  Scalar relativistic treatment of kinetic energy: ZORA.
  Threshold value for ZORA:   0.100000E-11
  Convergence accuracy of sum of eigenvalues:  0.1000E-01
  Charge =   0.000000E+00: Neutral system requested explicitly.
  Maximum number of s.-c. iterations  :   200
  Pulay mixing - number of memorized iterations:   10
  Occupation type: Gaussian broadening, width =   0.100000E-01 eV.
  Convergence accuracy of total energy:  0.1000E-05
  XC: Using BLYP gradient-corrected functional.
  Using pulay charge density mixing.
  Convergence accuracy of self-consistent charge density:  0.1000E-03
  Spin treatment: Spin density functional theory - collinear spins.
  Charge density mixing - mixing parameter:     0.5000
  Initial spin moment per atom:   0.0000
 
  Reading configuration options for species H                   .
  | Found nuclear charge :   1.0000
  | Found atomic mass :    1.00794000000000      amu
  | Found l_max for Hartree potential  :   4
  | Found cutoff potl. onset [A], width [A], scale factor :    3.50000    1.50000    1.00000
  | Threshold for basis-dependent cutoff potential is   0.100000E-03
  | Found data for basic radial integration grid :    24 points, outermost radius =    5.000 A
  | Found multiplier for basic radial grid :   1
  | Found angular grid specification: user-specified.
  | Specified grid contains     5 separate shells.
  | Check grid settings after all constraints further below.
  | Found free-atom valence shell :  1 s   1.000
  | No ionic wave fns used. Skipping ion_occ.
  | Found hydrogenic basis function :  2 s   2.100
  | Found hydrogenic basis function :  2 p   3.500
  Species H                   : Missing cutoff potential type.
  Defaulting to exp(1/x)/(1-x)^2 type cutoff potential.
  Species H : No 'logarithmic' tag. Using default grid for free atom:
  | Default logarithmic grid data [bohr] : 0.1000E-03 0.1000E+03 0.1012E+01
  Species H : On-site basis accuracy parameter (for Gram-Schmidt orthonormalisation) not specified.
  Using default value basis_acc =  0.1000000E-03.
  Species H                   : Using default innermost maximum threshold i_radial=  2 for radial functions.
  Species H                   : Default cutoff onset for free atom density etc. : 0.35000000E+01 AA.
  Species H                   : Basic radial grid will be enhanced according to radial_multiplier =   1, to contain    24 grid points.
 
  Reading configuration options for species C                   .
  | Found nuclear charge :   6.0000
  | Found atomic mass :    12.0107000000000      amu
  | Found l_max for Hartree potential  :   4
  | Found cutoff potl. onset [A], width [A], scale factor :    3.50000    1.50000    1.00000
  | Threshold for basis-dependent cutoff potential is   0.100000E-03
  | Found data for basic radial integration grid :    34 points, outermost radius =    5.000 A
  | Found multiplier for basic radial grid :   1
  | Found angular grid specification: user-specified.
  | Specified grid contains     5 separate shells.
  | Check grid settings after all constraints further below.
  | Found free-atom valence shell :  2 s   2.000
  | Found free-atom valence shell :  2 p   2.000
  | No ionic wave fns used. Skipping ion_occ.
  | No ionic wave fns used. Skipping ion_occ.
  | Found hydrogenic basis function :  2 p   1.700
  | Found hydrogenic basis function :  3 d   6.000
  | Found hydrogenic basis function :  2 s   4.900
  Species C                   : Missing cutoff potential type.
  Defaulting to exp(1/x)/(1-x)^2 type cutoff potential.
  Species C : No 'logarithmic' tag. Using default grid for free atom:
  | Default logarithmic grid data [bohr] : 0.1000E-03 0.1000E+03 0.1012E+01
  Species C : On-site basis accuracy parameter (for Gram-Schmidt orthonormalisation) not specified.
  Using default value basis_acc =  0.1000000E-03.
  Species C                   : Using default innermost maximum threshold i_radial=  2 for radial functions.
  Species C                   : Default cutoff onset for free atom density etc. : 0.35000000E+01 AA.
  Species C                   : Basic radial grid will be enhanced according to radial_multiplier =   1, to contain    34 grid points.
 
  Finished reading input file 'control.in'.
 
------------------------------------------------------------


------------------------------------------------------------
          Reading geometry description geometry.in.
------------------------------------------------------------
  | The smallest distance between any two atoms is         1.08461069 AA.
  | The first atom of this pair is atom number                     23 .
  | The second atom of this pair is atom number                    35 .
  Input structure read successfully.
  The structure contains       46 atoms,  and a total of        186.000 electrons.

  Input geometry:
  | No unit cell requested.
  | Atomic structure:
  |       Atom                x [A]            y [A]            z [A]
  |    1: Species H            50.30746395       48.64943430       14.44817306
  |    2: Species H            52.50670763       46.63041742       17.57177188
  |    3: Species H            52.56355488       48.67659847       18.84417306
  |    4: Species H            50.10987075       46.95555425       13.50955358
  |    5: Species H            50.09810925       44.90824029       12.19141028
  |    6: Species H            51.34921921       42.88987090       12.96404470
  |    7: Species H            52.61977485       42.99295019       15.11800091
  |    8: Species H            52.64941383       45.03722827       16.43795578
  |    9: Species C            50.81587439       48.62963613       15.40921072
  |   10: Species C            51.41092788       47.43952801       15.88157748
  |   11: Species C            52.03248395       47.50950280       17.14197700
  |   12: Species C            52.06408318       48.68729569       17.87770069
  |   13: Species C            51.39226630       46.18938717       15.08765712
  |   14: Species C            50.68328308       46.10598792       13.87254683
  |   15: Species C            50.67222727       44.93734514       13.11689588
  |   16: Species C            51.36858648       43.80758497       13.55099324
  |   17: Species C            52.07459012       43.86410416       14.75410187
  |   18: Species C            52.08494024       45.03576802       15.50816770
  |   19: Species H            53.41226472       51.63141308       22.06672887
  |   20: Species H            50.73620983       58.31118089       21.71098189
  |   21: Species H            50.21313672       57.08613391       19.63356449
  |   22: Species H            50.26653393       55.08557263       18.26967906
  |   23: Species H            50.38610918       52.55530123       16.91734238
  |   24: Species H            52.65106044       50.46604932       20.01965526
  |   25: Species H            50.36423279       50.68945779       15.72397093
  |   26: Species C            53.10183953       52.67243371       22.14960817
  |   27: Species C            52.37513565       53.26034347       21.10976724
  |   28: Species C            52.27579018       55.33888314       22.45191384
  |   29: Species C            51.81309277       56.67413340       22.59978321
  |   30: Species C            51.09070144       57.28869075       21.59549433
  |   31: Species C            50.79415482       56.59635442       20.41276585
  |   32: Species C            51.21027669       55.27806695       20.22549485
  |   33: Species C            50.84912023       54.56682452       19.03189695
  |   34: Species C            51.20525845       53.25657977       18.87700775
  |   35: Species C            50.93991901       52.32349269       17.82063625
  |   36: Species C            51.49992323       51.10591422       18.17774190
  |   37: Species C            52.13496582       51.25825922       19.48614802
  |   38: Species C            51.96748206       54.62471771       21.25378702
  |   39: Species C            51.97171620       52.55733850       19.91481067
  |   40: Species C            51.47177404       49.87167575       17.40216368
  |   41: Species C            50.84621906       49.80620141       16.14063193
  |   42: Species H            53.94913799       52.87712047       24.11742561
  |   43: Species H            53.20220433       55.21641926       24.41203211
  |   44: Species H            52.02330998       57.19581665       23.53387377
  |   45: Species C            53.40575669       53.37777201       23.31965567
  |   46: Species C            52.99912243       54.68822048       23.48065891

  Initial moments and charges:
  |  Atom   Moment         Charge        Species
  |     1   0.000000E+00   0.000000E+00   H
  |     2   0.000000E+00   0.000000E+00   H
  |     3   0.000000E+00   0.000000E+00   H
  |     4   0.000000E+00   0.000000E+00   H
  |     5   0.000000E+00   0.000000E+00   H
  |     6   0.000000E+00   0.000000E+00   H
  |     7   0.000000E+00   0.000000E+00   H
  |     8   0.000000E+00   0.000000E+00   H
  |     9   0.000000E+00   0.000000E+00   C
  |    10   0.000000E+00   0.000000E+00   C
  |    11   0.000000E+00   0.000000E+00   C
  |    12   0.000000E+00   0.000000E+00   C
  |    13   0.000000E+00   0.000000E+00   C
  |    14   0.000000E+00   0.000000E+00   C
  |    15   0.000000E+00   0.000000E+00   C
  |    16   0.000000E+00   0.000000E+00   C
  |    17   0.000000E+00   0.000000E+00   C
  |    18   0.000000E+00   0.000000E+00   C
  |    19   0.000000E+00   0.000000E+00   H
  |    20   0.000000E+00   0.000000E+00   H
  |    21   0.000000E+00   0.000000E+00   H
  |    22   0.000000E+00   0.000000E+00   H
  |    23   0.000000E+00   0.000000E+00   H
  |    24   0.000000E+00   0.000000E+00   H
  |    25   0.000000E+00   0.000000E+00   H
  |    26   0.000000E+00   0.000000E+00   C
  |    27   0.000000E+00   0.000000E+00   C
  |    28   0.000000E+00   0.000000E+00   C
  |    29   0.000000E+00   0.000000E+00   C
  |    30   0.000000E+00   0.000000E+00   C
  |    31   0.000000E+00   0.000000E+00   C
  |    32   0.000000E+00   0.000000E+00   C
  |    33   0.000000E+00   0.000000E+00   C
  |    34   0.000000E+00   0.000000E+00   C
  |    35   0.000000E+00   0.000000E+00   C
  |    36   0.000000E+00   0.000000E+00   C
  |    37   0.000000E+00   0.000000E+00   C
  |    38   0.000000E+00   0.000000E+00   C
  |    39   0.000000E+00   0.000000E+00   C
  |    40   0.000000E+00   0.000000E+00   C
  |    41   0.000000E+00   0.000000E+00   C
  |    42   0.000000E+00   0.000000E+00   H
  |    43   0.000000E+00   0.000000E+00   H
  |    44   0.000000E+00   0.000000E+00   H
  |    45   0.000000E+00   0.000000E+00   C
  |    46   0.000000E+00   0.000000E+00   C

 
  Finished reading input file 'geometry.in'.
 

 
  Consistency checks for stacksize environment parameter are next.
 
  | Maximum stacksize for task 0: unlimited
  | Maximum stacksize for task 1: unlimited
  | Maximum stacksize for task 2: unlimited
  | Maximum stacksize for task 3: unlimited
  | Maximum stacksize for task 4: unlimited
  | Maximum stacksize for task 5: unlimited
  | Maximum stacksize for task 6: unlimited
  | Maximum stacksize for task 7: unlimited
  | Maximum stacksize for task 8: unlimited
  | Maximum stacksize for task 9: unlimited
  | Maximum stacksize for task 10: unlimited
  | Maximum stacksize for task 11: unlimited
  | Maximum stacksize for task 12: unlimited
  | Maximum stacksize for task 13: unlimited
  | Maximum stacksize for task 14: unlimited
  | Maximum stacksize for task 15: unlimited
  | Maximum stacksize for task 16: unlimited
  | Maximum stacksize for task 17: unlimited
  | Maximum stacksize for task 18: unlimited
  | Maximum stacksize for task 19: unlimited
  | Maximum stacksize for task 20: unlimited
  | Maximum stacksize for task 21: unlimited
  | Maximum stacksize for task 22: unlimited
  | Maximum stacksize for task 23: unlimited
  | Maximum stacksize for task 24: unlimited
  | Maximum stacksize for task 25: unlimited
  | Maximum stacksize for task 26: unlimited
  | Maximum stacksize for task 27: unlimited
  | Maximum stacksize for task 28: unlimited
  | Maximum stacksize for task 29: unlimited
  | Maximum stacksize for task 30: unlimited
  | Maximum stacksize for task 31: unlimited
  | Maximum stacksize for task 32: unlimited
  | Maximum stacksize for task 33: unlimited
  | Maximum stacksize for task 34: unlimited
  | Maximum stacksize for task 35: unlimited
  | Maximum stacksize for task 36: unlimited
  | Maximum stacksize for task 37: unlimited
  | Maximum stacksize for task 38: unlimited
  | Maximum stacksize for task 39: unlimited
  | Maximum stacksize for task 40: unlimited
  | Maximum stacksize for task 41: unlimited
  | Maximum stacksize for task 42: unlimited
  | Maximum stacksize for task 43: unlimited
  | Maximum stacksize for task 44: unlimited
  | Maximum stacksize for task 45: unlimited
  | Maximum stacksize for task 46: unlimited
  | Maximum stacksize for task 47: unlimited
  | Maximum stacksize for task 48: unlimited
  | Maximum stacksize for task 49: unlimited
  | Maximum stacksize for task 50: unlimited
  | Maximum stacksize for task 51: unlimited
  | Maximum stacksize for task 52: unlimited
  | Maximum stacksize for task 53: unlimited
  | Maximum stacksize for task 54: unlimited
  | Maximum stacksize for task 55: unlimited
  | Current stacksize for task 0: unlimited
  | Current stacksize for task 1: unlimited
  | Current stacksize for task 2: unlimited
  | Current stacksize for task 3: unlimited
  | Current stacksize for task 4: unlimited
  | Current stacksize for task 5: unlimited
  | Current stacksize for task 6: unlimited
  | Current stacksize for task 7: unlimited
  | Current stacksize for task 8: unlimited
  | Current stacksize for task 9: unlimited
  | Current stacksize for task 10: unlimited
  | Current stacksize for task 11: unlimited
  | Current stacksize for task 12: unlimited
  | Current stacksize for task 13: unlimited
  | Current stacksize for task 14: unlimited
  | Current stacksize for task 15: unlimited
  | Current stacksize for task 16: unlimited
  | Current stacksize for task 17: unlimited
  | Current stacksize for task 18: unlimited
  | Current stacksize for task 19: unlimited
  | Current stacksize for task 20: unlimited
  | Current stacksize for task 21: unlimited
  | Current stacksize for task 22: unlimited
  | Current stacksize for task 23: unlimited
  | Current stacksize for task 24: unlimited
  | Current stacksize for task 25: unlimited
  | Current stacksize for task 26: unlimited
  | Current stacksize for task 27: unlimited
  | Current stacksize for task 28: unlimited
  | Current stacksize for task 29: unlimited
  | Current stacksize for task 30: unlimited
  | Current stacksize for task 31: unlimited
  | Current stacksize for task 32: unlimited
  | Current stacksize for task 33: unlimited
  | Current stacksize for task 34: unlimited
  | Current stacksize for task 35: unlimited
  | Current stacksize for task 36: unlimited
  | Current stacksize for task 37: unlimited
  | Current stacksize for task 38: unlimited
  | Current stacksize for task 39: unlimited
  | Current stacksize for task 40: unlimited
  | Current stacksize for task 41: unlimited
  | Current stacksize for task 42: unlimited
  | Current stacksize for task 43: unlimited
  | Current stacksize for task 44: unlimited
  | Current stacksize for task 45: unlimited
  | Current stacksize for task 46: unlimited
  | Current stacksize for task 47: unlimited
  | Current stacksize for task 48: unlimited
  | Current stacksize for task 49: unlimited
  | Current stacksize for task 50: unlimited
  | Current stacksize for task 51: unlimited
  | Current stacksize for task 52: unlimited
  | Current stacksize for task 53: unlimited
  | Current stacksize for task 54: unlimited
  | Current stacksize for task 55: unlimited
 
  Consistency checks for the contents of control.in are next.
 
  MPI_IN_PLACE appears to work with this MPI implementation.
  | Keeping use_mpi_in_place .true. (see manual).
  Target number of points in a grid batch is not set. Defaulting to  100
  Method for grid partitioning is not set. Defaulting to parallel hash+maxmin partitioning.
  Batch size limit is not set. Defaulting to    200
  By default, will store active basis functions for each batch.
  If in need of memory, prune_basis_once .false. can be used to disable this option.
  communication_type for Hartree potential was not specified.
  Defaulting to calc_hartree .
  Pulay mixer: Number of initial linear mixing iterations not set.
  Defaulting to    0 iterations.
  Work space size for distributed Hartree potential not set.
  Defaulting to   0.200000E+03 MB.
  Mixing parameter for spin density mixing has not been set.
  Using charge_mix_param as default:     0.5000.
  Algorithm-dependent basis array size parameters:
  | n_max_pulay                         :       10
  Presetting      1001 iterations before the initial mixing cycle
  is restarted anyway using the sc_init_iter criterion / keyword.
  Presetting a factor      1.000 between actual scf density residual
  and density convergence criterion sc_accuracy_rho below which sc_init_iter
  takes no effect.
  Calculation of forces was not defined in control.in. No forces will be calculated.
  Geometry relaxation not requested: no relaxation will be performed.
  No accuracy limit for integral partition fn. given. Defaulting to  0.1000E-14.
  No threshold value for u(r) in integrations given. Defaulting to  0.1000E-05.
  No accuracy for occupation numbers given. Defaulting to  0.1000E-12.
  No threshold value for occupation numbers given. Defaulting to  0.0000E+00.
  No accuracy for fermi level given. Defaulting to  0.1000E-19.
  Maximum # of iterations to find E_F not set. Defaulting to  200.
  Preferred method for the eigenvalue solver ('KS_method') not specified in 'control.in'.
  Calling BLACS routine to test compilation state
  Since ScaLAPACK support is enabled, defaulting to ELPA (via ELSI).
  Will not use alltoall communication since running on < 1024 CPUs.
  Threshold for basis singularities not set.
  Default threshold for basis singularities:  0.1000E-04
  partition_type (choice of integration weights) for integrals was not specified.
  | Using a version of the partition function of Stratmann and coworkers ('stratmann_sparse').
  | At each grid point, the set of atoms used to build the partition table is smoothly restricted to
  | only those atoms whose free-atom density would be non-zero at that grid point.
  Partitioning for Hartree potential was not defined. Using partition_type for integrals.
  | Adjusted default value of keyword multip_moments_threshold to:       0.10000000E-11
  | This value may affect high angular momentum components of the Hartree potential in periodic systems.
  No q(lm)/r^(l+1) cutoff set for long-range Hartree potential.
  | Using default value of  0.100000E-09 .
  | Verify using the multipole_threshold keyword.
  Defaulting to new monopole extrapolation.
  Density update method: automatic selection selected.
  Charge integration errors on the 3D integration grid will be compensated
  by explicit normalization and distribution of residual charges.
  Use the "compensate_multipole_errors" flag to change this behaviour.
  Set 'collect_eigenvectors' to be '.true.' for use_density_matrix .false.
  Set 'collect_eigenvectors' to be '.true.' for fo_dft.
 
  Consistency checks for the contents of geometry.in are next.
 
  Number of empty states per atom not set in control.in - providing a guess from actual geometry.
  | Total number of empty states used during s.c.f. cycle:      111
  If you use a very high smearing, use empty_states (per atom!) in control.in to increase this value.

  Structure-dependent array size parameters: 
  | Number of distinct atom types in initial rho :        2
  | Maximum number of distinct radial functions  :        9
  | Maximum number of basis functions            :      482
  | Number of Kohn-Sham states (occupied + empty):      204
------------------------------------------------------------

------------------------------------------------------------
          Preparing all fixed parts of the calculation.
------------------------------------------------------------
  Determining machine precision:
    2.225073858507201E-308
  Setting up grids for atomic and cluster calculations.

  Creating wave function, potential, and density for free atoms.
  Runtime choices for atomic solver:
  | atomic solver xc        : BLYP
  | compute density gradient: 1
  | compute kinetic density : F

  Species: H

  List of occupied orbitals and eigenvalues:
    n    l              occ      energy [Ha]    energy [eV]
    1    0           1.0000        -0.238990        -6.5032


  Species: C

  List of occupied orbitals and eigenvalues:
    n    l              occ      energy [Ha]    energy [eV]
    1    0           2.0000       -10.067089      -273.9394
    2    0           2.0000        -0.497842       -13.5470
    2    1           2.0000        -0.189944        -5.1687

  Spin-polarized or charged system:
  Charge density initialized according to selected moments and charges.

  Creating spin-polarized density from free atoms.

  Species: H
  Charge:   0.000000
  Moment:   0.000000

  List of occupied orbitals and eigenvalues:
    n    l      energy [Ha]    energy [eV]    occupation
  Spin-up
    1    0        -0.225604        -6.1390     0.50000000
  Spin-down
    1    0        -0.225604        -6.1390     0.50000000


  Species: C
  Charge:   0.000000
  Moment:   0.000000

  List of occupied orbitals and eigenvalues:
    n    l      energy [Ha]    energy [eV]    occupation
  Spin-up
    1    0       -10.049586      -273.4632     1.00000000
    2    0        -0.489543       -13.3211     1.00000000
    2    1        -0.180931        -4.9234     1.00000000
  Spin-down
    1    0       -10.049586      -273.4632     1.00000000
    2    0        -0.489543       -13.3211     1.00000000
    2    1        -0.180931        -4.9234     1.00000000


  Adding cutoff potential to free-atom effective potential.
  Creating fixed part of basis set: Ionic, confined, hydrogenic.
 
  H                    hydrogenic:
 
  List of hydrogenic basis orbitals: 
    n    l      effective z      eigenvalue [eV]  inner max. [A]     outer max. [A]     outer radius [A]   
    2    0         2.100000       -14.9728           0.193243           1.317208           4.583499
    2    1         3.500000       -41.6669           0.602369           0.602369           3.723403
 
 
  C                    hydrogenic:
 
  List of hydrogenic basis orbitals: 
    n    l      effective z      eigenvalue [eV]  inner max. [A]     outer max. [A]     outer radius [A]   
    2    1         1.700000        -9.7616           1.230570           1.230570           4.607917
    3    2         6.000000       -54.4224           0.792453           0.792453           3.883070
    2    0         4.900000       -81.6679           0.082559           0.562749           3.078220
 
  Creating atomic-like basis functions for current effective potential.

  Species H                   :

  List of atomic basis orbitals and eigenvalues:
    n    l      energy [Ha]    energy [eV]    outer radius [A]
    1    0        -0.238990        -6.5032       4.527807


  Species C                   :

  List of atomic basis orbitals and eigenvalues:
    n    l      energy [Ha]    energy [eV]    outer radius [A]
    1    0       -10.067089      -273.9394       1.934409
    2    0        -0.497842       -13.5470       4.496620
    2    1        -0.189944        -5.1687       4.551928

  Assembling full basis from fixed parts.
  | Species H :   atomic orbital   1 s accepted.
  | Species H :    hydro orbital   2 s accepted.
  | Species H :    hydro orbital   2 p accepted.
  | Species C :   atomic orbital   1 s accepted.
  | Species C :    hydro orbital   2 s accepted.
  | Species C :   atomic orbital   2 s accepted.
  | Species C :   atomic orbital   2 p accepted.
  | Species C :    hydro orbital   2 p accepted.
  | Species C :    hydro orbital   3 d accepted.
 
  Basis size parameters after reduction:
  | Total number of radial functions:        9
  | Total number of basis functions :      482
 
  Per-task memory consumption for arrays in subroutine allocate_ext:
  |           2.218912MB.
  Testing on-site integration grid accuracy.
  |  Species  Function  <phi|h_atom|phi> (log., in eV)  <phi|h_atom|phi> (rad., in eV)
           1        1                 -6.5044527913                 -6.5032312304
           1        2                 13.5128264660                 13.5186953162
           1        3                 25.3317713414                 25.3319138181
           2        4               -273.9394205892               -273.9393868748
           2        5                -10.6145279052                -10.6144887969
           2        6                 17.1727568254                 17.1688026287
           2        7                 -5.1704957803                 -5.1720974370
           2        8                  8.7521213222                  8.7293892811
           2        9                 27.7044268360                 27.7044408576

  Preparing densities etc. for the partition functions (integrals / Hartree potential).

  Preparations completed.
  max(cpu_time)          :      0.184 s.
  Wall clock time (cpu1) :      0.359 s.
------------------------------------------------------------

  Initializing index lists of integration centers etc. from given atomic structure:
  | Number of centers in hartree potential         :        46
  | Number of centers in hartree multipole         :        46
  | Number of centers in electron density summation:        46
  | Number of centers in basis integrals           :        46
  | Number of centers in integrals                 :        46
  | Number of centers in hamiltonian               :        46

------------------------------------------------------------
          Begin self-consistency loop: Initialization.

          Date     :  20241106, Time     :  131651.895
------------------------------------------------------------
  * Using 56 tasks for Scalapack Eigenvalue solver.
  Detailed listing of tasks and assigned k-points:
  (for non-periodic systems, the "k-point" denotes an internal label only)
   Task     0 k-point     1 on f001
   Task     1 k-point     1 on f001
   Task     2 k-point     1 on f001
   Task     3 k-point     1 on f001
   Task     4 k-point     1 on f001
   Task     5 k-point     1 on f001
   Task     6 k-point     1 on f001
   Task     7 k-point     1 on f001
   Task     8 k-point     1 on f001
   Task     9 k-point     1 on f001
   Task    10 k-point     1 on f001
   Task    11 k-point     1 on f001
   Task    12 k-point     1 on f001
   Task    13 k-point     1 on f001
   Task    14 k-point     1 on f001
   Task    15 k-point     1 on f001
   Task    16 k-point     1 on f001
   Task    17 k-point     1 on f001
   Task    18 k-point     1 on f001
   Task    19 k-point     1 on f001
   Task    20 k-point     1 on f001
   Task    21 k-point     1 on f001
   Task    22 k-point     1 on f001
   Task    23 k-point     1 on f001
   Task    24 k-point     1 on f001
   Task    25 k-point     1 on f001
   Task    26 k-point     1 on f001
   Task    27 k-point     1 on f001
   Task    28 k-point     1 on f001
   Task    29 k-point     1 on f001
   Task    30 k-point     1 on f001
   Task    31 k-point     1 on f001
   Task    32 k-point     1 on f001
   Task    33 k-point     1 on f001
   Task    34 k-point     1 on f001
   Task    35 k-point     1 on f001
   Task    36 k-point     1 on f001
   Task    37 k-point     1 on f001
   Task    38 k-point     1 on f001
   Task    39 k-point     1 on f001
   Task    40 k-point     1 on f001
   Task    41 k-point     1 on f001
   Task    42 k-point     1 on f001
   Task    43 k-point     1 on f001
   Task    44 k-point     1 on f001
   Task    45 k-point     1 on f001
   Task    46 k-point     1 on f001
   Task    47 k-point     1 on f001
   Task    48 k-point     1 on f001
   Task    49 k-point     1 on f001
   Task    50 k-point     1 on f001
   Task    51 k-point     1 on f001
   Task    52 k-point     1 on f001
   Task    53 k-point     1 on f001
   Task    54 k-point     1 on f001
   Task    55 k-point     1 on f001
  Tasks:    56 split into      8 X      7 BLACS grid
  Calculating block size based on n_basis =          482  max_nprow =            8  max_npcol =            7
  ScaLAPACK block size set to:           16
  Allocating        0.039 MB for ovlp
  Allocating        0.078 MB for ham
  Allocating        0.078 MB for eigenvec
  Required Scalapack workspace - INTEGER:            1  REAL:             1
  Partitioning the integration grid into batches with parallel hashing+maxmin method.
  | Number of batches:     2294
  | Maximal batch size:     200
  | Minimal batch size:       3
  | Average batch size:     107.449
  | Standard deviation of batch sizes:      29.913

  Integration load balanced across    56 MPI tasks.
  Work distribution over tasks is as follows:
  Task     0 has       4382 integration points.
  Task     1 has       4383 integration points.
  Task     2 has       4419 integration points.
  Task     3 has       4417 integration points.
  Task     4 has       4396 integration points.
  Task     5 has       4357 integration points.
  Task     6 has       4361 integration points.
  Task     7 has       4416 integration points.
  Task     8 has       4400 integration points.
  Task     9 has       4470 integration points.
  Task    10 has       4402 integration points.
  Task    11 has       4402 integration points.
  Task    12 has       4399 integration points.
  Task    13 has       4402 integration points.
  Task    14 has       4391 integration points.
  Task    15 has       4381 integration points.
  Task    16 has       4396 integration points.
  Task    17 has       4369 integration points.
  Task    18 has       4388 integration points.
  Task    19 has       4487 integration points.
  Task    20 has       4356 integration points.
  Task    21 has       4375 integration points.
  Task    22 has       4406 integration points.
  Task    23 has       4380 integration points.
  Task    24 has       4397 integration points.
  Task    25 has       4411 integration points.
  Task    26 has       4406 integration points.
  Task    27 has       4407 integration points.
  Task    28 has       4420 integration points.
  Task    29 has       4420 integration points.
  Task    30 has       4444 integration points.
  Task    31 has       4415 integration points.
  Task    32 has       4384 integration points.
  Task    33 has       4399 integration points.
  Task    34 has       4442 integration points.
  Task    35 has       4400 integration points.
  Task    36 has       4446 integration points.
  Task    37 has       4385 integration points.
  Task    38 has       4406 integration points.
  Task    39 has       4377 integration points.
  Task    40 has       4414 integration points.
  Task    41 has       4410 integration points.
  Task    42 has       4366 integration points.
  Task    43 has       4394 integration points.
  Task    44 has       4399 integration points.
  Task    45 has       4410 integration points.
  Task    46 has       4422 integration points.
  Task    47 has       4402 integration points.
  Task    48 has       4434 integration points.
  Task    49 has       4403 integration points.
  Task    50 has       4408 integration points.
  Task    51 has       4403 integration points.
  Task    52 has       4396 integration points.
  Task    53 has       4375 integration points.
  Task    54 has       4394 integration points.
  Task    55 has       4364 integration points.
  Initializing partition tables, free-atom densities, potentials, etc. across the integration grid (initialize_grid_storage).
  | initialize_grid_storage: Actual outermost partition radius vs. multipole_radius_free
  | (-- VB: in principle, multipole_radius_free should be larger, hence this output)
  | Species        1: Confinement radius =              4.999999999999999 AA, multipole_radius_free =              5.054417573612229 AA.
  | Species        1: outer_partition_radius set to              5.054417573612229 AA .
  | Species        2: Confinement radius =              4.999999999999999 AA, multipole_radius_free =              5.019602836301480 AA.
  | Species        2: outer_partition_radius set to              5.019602836301480 AA .
  | The sparse table of interatomic distances needs         19.15 kbyte instead of        16.93 kbyte of memory.
  | Using the partition_type stratmann_smoother will reduce your memory usage.
  | Net number of integration points:   246488
  | of which are non-zero points    :   211059
  Renormalizing the initial density to the exact electron count on the 3D integration grid.
  | Initial density: Formal number of electrons (from input files) :     186.0000000000
  | Integrated number of electrons on 3D grid     :     185.9998050270
  | Charge integration error                      :      -0.0001949730
  | Normalization factor for density and gradient :       1.0000010482
  Renormalizing the free-atom superposition density to the exact electron count on the 3D integration grid.
  | Formal number of electrons (from input files) :     186.0000000000
  | Integrated number of electrons on 3D grid     :     185.9998301497
  | Charge integration error                      :      -0.0001698503
  | Normalization factor for density and gradient :       1.0000009132
  Obtaining max. number of non-zero basis functions in each batch (get_n_compute_maxes).
  | Maximal number of non-zero basis functions:      246 in task     0
  | Maximal number of non-zero basis functions:      237 in task     1
  | Maximal number of non-zero basis functions:      245 in task     2
  | Maximal number of non-zero basis functions:      241 in task     3
  | Maximal number of non-zero basis functions:      254 in task     4
  | Maximal number of non-zero basis functions:      241 in task     5
  | Maximal number of non-zero basis functions:      245 in task     6
  | Maximal number of non-zero basis functions:      246 in task     7
  | Maximal number of non-zero basis functions:      242 in task     8
  | Maximal number of non-zero basis functions:      246 in task     9
  | Maximal number of non-zero basis functions:      246 in task    10
  | Maximal number of non-zero basis functions:      251 in task    11
  | Maximal number of non-zero basis functions:      253 in task    12
  | Maximal number of non-zero basis functions:      239 in task    13
  | Maximal number of non-zero basis functions:      244 in task    14
  | Maximal number of non-zero basis functions:      235 in task    15
  | Maximal number of non-zero basis functions:      245 in task    16
  | Maximal number of non-zero basis functions:      251 in task    17
  | Maximal number of non-zero basis functions:      242 in task    18
  | Maximal number of non-zero basis functions:      250 in task    19
  | Maximal number of non-zero basis functions:      254 in task    20
  | Maximal number of non-zero basis functions:      246 in task    21
  | Maximal number of non-zero basis functions:      250 in task    22
  | Maximal number of non-zero basis functions:      243 in task    23
  | Maximal number of non-zero basis functions:      249 in task    24
  | Maximal number of non-zero basis functions:      248 in task    25
  | Maximal number of non-zero basis functions:      251 in task    26
  | Maximal number of non-zero basis functions:      245 in task    27
  | Maximal number of non-zero basis functions:      254 in task    28
  | Maximal number of non-zero basis functions:      236 in task    29
  | Maximal number of non-zero basis functions:      239 in task    30
  | Maximal number of non-zero basis functions:      236 in task    31
  | Maximal number of non-zero basis functions:      245 in task    32
  | Maximal number of non-zero basis functions:      243 in task    33
  | Maximal number of non-zero basis functions:      242 in task    34
  | Maximal number of non-zero basis functions:      240 in task    35
  | Maximal number of non-zero basis functions:      246 in task    36
  | Maximal number of non-zero basis functions:      253 in task    37
  | Maximal number of non-zero basis functions:      251 in task    38
  | Maximal number of non-zero basis functions:      238 in task    39
  | Maximal number of non-zero basis functions:      241 in task    40
  | Maximal number of non-zero basis functions:      247 in task    41
  | Maximal number of non-zero basis functions:      243 in task    42
  | Maximal number of non-zero basis functions:      252 in task    43
  | Maximal number of non-zero basis functions:      239 in task    44
  | Maximal number of non-zero basis functions:      242 in task    45
  | Maximal number of non-zero basis functions:      250 in task    46
  | Maximal number of non-zero basis functions:      247 in task    47
  | Maximal number of non-zero basis functions:      252 in task    48
  | Maximal number of non-zero basis functions:      251 in task    49
  | Maximal number of non-zero basis functions:      248 in task    50
  | Maximal number of non-zero basis functions:      252 in task    51
  | Maximal number of non-zero basis functions:      245 in task    52
  | Maximal number of non-zero basis functions:      250 in task    53
  | Maximal number of non-zero basis functions:      253 in task    54
  | Maximal number of non-zero basis functions:      248 in task    55
  Selecting the method for density update.
  Loop over occupied states selected for charge density update.
  Hamiltonian matrix size:
  | Size of matrix non-packed:                116403
  | Size of matrix packed:           80690
  Allocating        1.500 MB for KS_eigenvector
  Integrating Hamiltonian matrix: batch-based integration.
  Time summed over all CPUs for integration: real work       16.881 s, elapsed       30.465 s => Consider using load balancing!
  Integrating overlap matrix.
  Time summed over all CPUs for integration: real work        2.087 s, elapsed        5.135 s
  Decreasing sparse matrix size:
  | Tolerance:  0.1000E-12
  Hamiltonian matrix
  | Array has    78231 nonzero elements out of    80690 elements
  | Sparsity factor is 0.030
  Overlap matrix
  | Array has    76804 nonzero elements out of    80690 elements
  | Sparsity factor is 0.048
  New size of hamiltonian matrix:       78232
  Deallocating overlap matrix.

  Updating Kohn-Sham eigenvalues and eigenvectors using ELSI and the ELPA eigensolver.
  Overlap matrix is not singular
  | Lowest and highest eigenvalues :  0.8657E-03,  0.6930E+01
  Finished singularity check of overlap matrix
  | Time :     4.660 s
  Starting ELPA eigensolver
  Finished Cholesky decomposition
  | Time :     0.357 s
  Finished transformation to standard eigenproblem
  | Time :     0.474 s
  Finished solving standard eigenproblem
  | Time :     4.590 s
  Finished back-transformation of eigenvectors
  | Time :     0.195 s
  Starting ELPA eigensolver
  Finished transformation to standard eigenproblem
  | Time :     0.491 s
  Finished solving standard eigenproblem
  | Time :     4.749 s
  Finished back-transformation of eigenvectors
  | Time :     0.205 s

  Obtaining occupation numbers and electronic chemical potential using ELSI.
  | Note that, for insulating systems, the printed 'chemical potential' value is not uniquely defined.
  | It can be anywhere in the energy gap, as long as it correctly separates occupied and unoccupied states.
  | In systems with a gap, the physically relevant chemical potential is the VBM or HOMO.

  | Chemical potential (Fermi level):    -8.70474025 eV
  Writing Kohn-Sham eigenvalues.

  Spin-up eigenvalues:

  State    Occupation    Eigenvalue [Ha]    Eigenvalue [eV]
      1       1.00000         -10.187547         -277.21726
      2       1.00000         -10.186991         -277.20213
      3       1.00000         -10.186330         -277.18415
      4       1.00000         -10.186008         -277.17539
      5       1.00000         -10.185692         -277.16679
      6       1.00000         -10.185609         -277.16451
      7       1.00000         -10.185377         -277.15821
      8       1.00000         -10.185261         -277.15505
      9       1.00000         -10.185175         -277.15272
     10       1.00000         -10.185078         -277.15007
     11       1.00000         -10.184914         -277.14562
     12       1.00000         -10.184794         -277.14233
     13       1.00000         -10.184679         -277.13922
     14       1.00000         -10.184406         -277.13180
     15       1.00000         -10.184252         -277.12759
     16       1.00000         -10.184186         -277.12580
     17       1.00000         -10.183273         -277.10097
     18       1.00000         -10.182683         -277.08491
     19       1.00000         -10.181517         -277.05316
     20       1.00000         -10.181302         -277.04733
     21       1.00000         -10.180847         -277.03494
     22       1.00000         -10.179945         -277.01039
     23       1.00000         -10.179724         -277.00439
     24       1.00000         -10.179693         -277.00354
     25       1.00000         -10.177722         -276.94991
     26       1.00000         -10.177128         -276.93375
     27       1.00000         -10.177118         -276.93346
     28       1.00000         -10.176944         -276.92873
     29       1.00000          -1.002782          -27.28708
     30       1.00000          -0.983702          -26.76788
     31       1.00000          -0.977631          -26.60270
     32       1.00000          -0.964342          -26.24108
     33       1.00000          -0.943962          -25.68650
     34       1.00000          -0.918372          -24.99019
     35       1.00000          -0.894830          -24.34955
     36       1.00000          -0.877606          -23.88088
     37       1.00000          -0.871849          -23.72422
     38       1.00000          -0.865033          -23.53875
     39       1.00000          -0.864395          -23.52137
     40       1.00000          -0.857580          -23.33595
     41       1.00000          -0.834735          -22.71430
     42       1.00000          -0.821633          -22.35778
     43       1.00000          -0.779181          -21.20260
     44       1.00000          -0.762489          -20.74838
     45       1.00000          -0.747184          -20.33190
     46       1.00000          -0.744283          -20.25298
     47       1.00000          -0.732971          -19.94516
     48       1.00000          -0.725225          -19.73437
     49       1.00000          -0.711954          -19.37325
     50       1.00000          -0.710207          -19.32572
     51       1.00000          -0.672513          -18.30000
     52       1.00000          -0.662404          -18.02493
     53       1.00000          -0.650762          -17.70813
     54       1.00000          -0.641356          -17.45217
     55       1.00000          -0.639843          -17.41102
     56       1.00000          -0.631089          -17.17280
     57       1.00000          -0.618583          -16.83250
     58       1.00000          -0.615757          -16.75560
     59       1.00000          -0.598203          -16.27794
     60       1.00000          -0.592037          -16.11015
     61       1.00000          -0.588468          -16.01303
     62       1.00000          -0.578727          -15.74796
     63       1.00000          -0.573910          -15.61690
     64       1.00000          -0.563892          -15.34428
     65       1.00000          -0.560126          -15.24179
     66       1.00000          -0.557223          -15.16280
     67       1.00000          -0.556826          -15.15200
     68       1.00000          -0.551938          -15.01899
     69       1.00000          -0.545378          -14.84048
     70       1.00000          -0.530374          -14.43222
     71       1.00000          -0.526371          -14.32328
     72       1.00000          -0.519095          -14.12530
     73       1.00000          -0.518831          -14.11811
     74       1.00000          -0.513395          -13.97019
     75       1.00000          -0.507938          -13.82169
     76       1.00000          -0.501382          -13.64330
     77       1.00000          -0.494862          -13.46589
     78       1.00000          -0.491992          -13.38780
     79       1.00000          -0.489531          -13.32083
     80       1.00000          -0.485156          -13.20177
     81       1.00000          -0.475384          -12.93585
     82       1.00000          -0.473739          -12.89108
     83       1.00000          -0.471107          -12.81947
     84       1.00000          -0.458058          -12.46441
     85       1.00000          -0.432816          -11.77752
     86       1.00000          -0.409042          -11.13061
     87       1.00000          -0.398167          -10.83467
     88       1.00000          -0.390182          -10.61739
     89       1.00000          -0.386222          -10.50965
     90       1.00000          -0.382662          -10.41276
     91       1.00000          -0.373195          -10.15514
     92       1.00000          -0.342573           -9.32189
     93       1.00000          -0.333972           -9.08785
     94       0.00000          -0.276217           -7.51624
     95       0.00000          -0.232669           -6.33124
     96       0.00000          -0.203640           -5.54132
     97       0.00000          -0.202353           -5.50632
     98       0.00000          -0.199347           -5.42449
     99       0.00000          -0.190934           -5.19557
    100       0.00000          -0.177136           -4.82013
    101       0.00000          -0.167981           -4.57100
    102       0.00000          -0.115806           -3.15125
    103       0.00000          -0.097326           -2.64838
    104       0.00000          -0.084035           -2.28671
    105       0.00000          -0.059116           -1.60862
    106       0.00000          -0.052693           -1.43384
    107       0.00000          -0.047771           -1.29992
    108       0.00000          -0.042540           -1.15757
    109       0.00000          -0.039588           -1.07726
    110       0.00000          -0.028173           -0.76661
    111       0.00000          -0.023771           -0.64685
    112       0.00000          -0.019482           -0.53012
    113       0.00000          -0.012508           -0.34035
    114       0.00000          -0.010049           -0.27344
    115       0.00000          -0.000527           -0.01433
    116       0.00000           0.003725            0.10137
    117       0.00000           0.005536            0.15064
    118       0.00000           0.005870            0.15974
    119       0.00000           0.015224            0.41427
    120       0.00000           0.020787            0.56566
    121       0.00000           0.027841            0.75761
    122       0.00000           0.032542            0.88551
    123       0.00000           0.040782            1.10973
    124       0.00000           0.043077            1.17218
    125       0.00000           0.048243            1.31275
    126       0.00000           0.056772            1.54483
    127       0.00000           0.059698            1.62446
    128       0.00000           0.067341            1.83243
    129       0.00000           0.070571            1.92034
    130       0.00000           0.075931            2.06619
    131       0.00000           0.087514            2.38137
    132       0.00000           0.093485            2.54386
    133       0.00000           0.097374            2.64969
    134       0.00000           0.107464            2.92423
    135       0.00000           0.109380            2.97637
    136       0.00000           0.114978            3.12871
    137       0.00000           0.124357            3.38394
    138       0.00000           0.130480            3.55055
    139       0.00000           0.134179            3.65119
    140       0.00000           0.150715            4.10117
    141       0.00000           0.154223            4.19661
    142       0.00000           0.164193            4.46792
    143       0.00000           0.167489            4.55760
    144       0.00000           0.169144            4.60265
    145       0.00000           0.173562            4.72285
    146       0.00000           0.176716            4.80870
    147       0.00000           0.181991            4.95224
    148       0.00000           0.184884            5.03095
    149       0.00000           0.190919            5.19516
    150       0.00000           0.192647            5.24220
    151       0.00000           0.195929            5.33149
    152       0.00000           0.203438            5.53584
    153       0.00000           0.210711            5.73374
    154       0.00000           0.211757            5.76221
    155       0.00000           0.214283            5.83093
    156       0.00000           0.214979            5.84987
    157       0.00000           0.216740            5.89779
    158       0.00000           0.226198            6.15516
    159       0.00000           0.235645            6.41223
    160       0.00000           0.236575            6.43752
    161       0.00000           0.243282            6.62003
    162       0.00000           0.246995            6.72106
    163       0.00000           0.250178            6.80770
    164       0.00000           0.252666            6.87540
    165       0.00000           0.257729            7.01315
    166       0.00000           0.261299            7.11031
    167       0.00000           0.264088            7.18619
    168       0.00000           0.270242            7.35367
    169       0.00000           0.272360            7.41129
    170       0.00000           0.281620            7.66328
    171       0.00000           0.288182            7.84182
    172       0.00000           0.288820            7.85919
    173       0.00000           0.290534            7.90584
    174       0.00000           0.292728            7.96554
    175       0.00000           0.294485            8.01335
    176       0.00000           0.295423            8.03887
    177       0.00000           0.298887            8.13313
    178       0.00000           0.301470            8.20340
    179       0.00000           0.303038            8.24607
    180       0.00000           0.305256            8.30644
    181       0.00000           0.308168            8.38567
    182       0.00000           0.321971            8.76129
    183       0.00000           0.323265            8.79649
    184       0.00000           0.331201            9.01243
    185       0.00000           0.335247            9.12253
    186       0.00000           0.341877            9.30293
    187       0.00000           0.344552            9.37574
    188       0.00000           0.346770            9.43608
    189       0.00000           0.350921            9.54905
    190       0.00000           0.355032            9.66091
    191       0.00000           0.358966            9.76796
    192       0.00000           0.389701           10.60430
    193       0.00000           0.395378           10.75879
    194       0.00000           0.402886           10.96309
    195       0.00000           0.412142           11.21496
    196       0.00000           0.415492           11.30611
    197       0.00000           0.418459           11.38684
    198       0.00000           0.424495           11.55111
    199       0.00000           0.444189           12.08699
    200       0.00000           0.453282           12.33442
    201       0.00000           0.470797           12.81104
    202       0.00000           0.482498           13.12945
    203       0.00000           0.494496           13.45591
    204       0.00000           0.516349           14.05056

  Spin-down eigenvalues:

  State    Occupation    Eigenvalue [Ha]    Eigenvalue [eV]
      1       1.00000         -10.187547         -277.21726
      2       1.00000         -10.186991         -277.20213
      3       1.00000         -10.186330         -277.18415
      4       1.00000         -10.186008         -277.17539
      5       1.00000         -10.185692         -277.16679
      6       1.00000         -10.185609         -277.16451
      7       1.00000         -10.185377         -277.15821
      8       1.00000         -10.185261         -277.15505
      9       1.00000         -10.185175         -277.15272
     10       1.00000         -10.185078         -277.15007
     11       1.00000         -10.184914         -277.14562
     12       1.00000         -10.184794         -277.14233
     13       1.00000         -10.184679         -277.13922
     14       1.00000         -10.184406         -277.13180
     15       1.00000         -10.184252         -277.12759
     16       1.00000         -10.184186         -277.12580
     17       1.00000         -10.183273         -277.10097
     18       1.00000         -10.182683         -277.08491
     19       1.00000         -10.181517         -277.05316
     20       1.00000         -10.181302         -277.04733
     21       1.00000         -10.180847         -277.03494
     22       1.00000         -10.179945         -277.01039
     23       1.00000         -10.179724         -277.00439
     24       1.00000         -10.179693         -277.00354
     25       1.00000         -10.177722         -276.94991
     26       1.00000         -10.177128         -276.93375
     27       1.00000         -10.177118         -276.93346
     28       1.00000         -10.176944         -276.92873
     29       1.00000          -1.002782          -27.28708
     30       1.00000          -0.983702          -26.76788
     31       1.00000          -0.977631          -26.60270
     32       1.00000          -0.964342          -26.24108
     33       1.00000          -0.943962          -25.68650
     34       1.00000          -0.918372          -24.99019
     35       1.00000          -0.894830          -24.34955
     36       1.00000          -0.877606          -23.88088
     37       1.00000          -0.871849          -23.72422
     38       1.00000          -0.865033          -23.53875
     39       1.00000          -0.864395          -23.52137
     40       1.00000          -0.857580          -23.33595
     41       1.00000          -0.834735          -22.71430
     42       1.00000          -0.821633          -22.35778
     43       1.00000          -0.779181          -21.20260
     44       1.00000          -0.762489          -20.74838
     45       1.00000          -0.747184          -20.33190
     46       1.00000          -0.744283          -20.25298
     47       1.00000          -0.732971          -19.94516
     48       1.00000          -0.725225          -19.73437
     49       1.00000          -0.711954          -19.37325
     50       1.00000          -0.710207          -19.32572
     51       1.00000          -0.672513          -18.30000
     52       1.00000          -0.662404          -18.02493
     53       1.00000          -0.650762          -17.70813
     54       1.00000          -0.641356          -17.45217
     55       1.00000          -0.639843          -17.41102
     56       1.00000          -0.631089          -17.17280
     57       1.00000          -0.618583          -16.83250
     58       1.00000          -0.615757          -16.75560
     59       1.00000          -0.598203          -16.27794
     60       1.00000          -0.592037          -16.11015
     61       1.00000          -0.588468          -16.01303
     62       1.00000          -0.578727          -15.74796
     63       1.00000          -0.573910          -15.61690
     64       1.00000          -0.563892          -15.34428
     65       1.00000          -0.560126          -15.24179
     66       1.00000          -0.557223          -15.16280
     67       1.00000          -0.556826          -15.15200
     68       1.00000          -0.551938          -15.01899
     69       1.00000          -0.545378          -14.84048
     70       1.00000          -0.530374          -14.43222
     71       1.00000          -0.526371          -14.32328
     72       1.00000          -0.519095          -14.12530
     73       1.00000          -0.518831          -14.11811
     74       1.00000          -0.513395          -13.97019
     75       1.00000          -0.507938          -13.82169
     76       1.00000          -0.501382          -13.64330
     77       1.00000          -0.494862          -13.46589
     78       1.00000          -0.491992          -13.38780
     79       1.00000          -0.489531          -13.32083
     80       1.00000          -0.485156          -13.20177
     81       1.00000          -0.475384          -12.93585
     82       1.00000          -0.473739          -12.89108
     83       1.00000          -0.471107          -12.81947
     84       1.00000          -0.458058          -12.46441
     85       1.00000          -0.432816          -11.77752
     86       1.00000          -0.409042          -11.13061
     87       1.00000          -0.398167          -10.83467
     88       1.00000          -0.390182          -10.61739
     89       1.00000          -0.386222          -10.50965
     90       1.00000          -0.382662          -10.41276
     91       1.00000          -0.373195          -10.15514
     92       1.00000          -0.342573           -9.32189
     93       1.00000          -0.333972           -9.08785
     94       0.00000          -0.276217           -7.51624
     95       0.00000          -0.232669           -6.33124
     96       0.00000          -0.203640           -5.54132
     97       0.00000          -0.202353           -5.50632
     98       0.00000          -0.199347           -5.42449
     99       0.00000          -0.190934           -5.19557
    100       0.00000          -0.177136           -4.82013
    101       0.00000          -0.167981           -4.57100
    102       0.00000          -0.115806           -3.15125
    103       0.00000          -0.097326           -2.64838
    104       0.00000          -0.084035           -2.28671
    105       0.00000          -0.059116           -1.60862
    106       0.00000          -0.052693           -1.43384
    107       0.00000          -0.047771           -1.29992
    108       0.00000          -0.042540           -1.15757
    109       0.00000          -0.039588           -1.07726
    110       0.00000          -0.028173           -0.76661
    111       0.00000          -0.023771           -0.64685
    112       0.00000          -0.019482           -0.53012
    113       0.00000          -0.012508           -0.34035
    114       0.00000          -0.010049           -0.27344
    115       0.00000          -0.000527           -0.01433
    116       0.00000           0.003725            0.10137
    117       0.00000           0.005536            0.15064
    118       0.00000           0.005870            0.15974
    119       0.00000           0.015224            0.41427
    120       0.00000           0.020787            0.56566
    121       0.00000           0.027841            0.75761
    122       0.00000           0.032542            0.88551
    123       0.00000           0.040782            1.10973
    124       0.00000           0.043077            1.17218
    125       0.00000           0.048243            1.31275
    126       0.00000           0.056772            1.54483
    127       0.00000           0.059698            1.62446
    128       0.00000           0.067341            1.83243
    129       0.00000           0.070571            1.92034
    130       0.00000           0.075931            2.06619
    131       0.00000           0.087514            2.38137
    132       0.00000           0.093485            2.54386
    133       0.00000           0.097374            2.64969
    134       0.00000           0.107464            2.92423
    135       0.00000           0.109380            2.97637
    136       0.00000           0.114978            3.12871
    137       0.00000           0.124357            3.38394
    138       0.00000           0.130480            3.55055
    139       0.00000           0.134179            3.65119
    140       0.00000           0.150715            4.10117
    141       0.00000           0.154223            4.19661
    142       0.00000           0.164193            4.46792
    143       0.00000           0.167489            4.55760
    144       0.00000           0.169144            4.60265
    145       0.00000           0.173562            4.72285
    146       0.00000           0.176716            4.80870
    147       0.00000           0.181991            4.95224
    148       0.00000           0.184884            5.03095
    149       0.00000           0.190919            5.19516
    150       0.00000           0.192647            5.24220
    151       0.00000           0.195929            5.33149
    152       0.00000           0.203438            5.53584
    153       0.00000           0.210711            5.73374
    154       0.00000           0.211757            5.76221
    155       0.00000           0.214283            5.83093
    156       0.00000           0.214979            5.84987
    157       0.00000           0.216740            5.89779
    158       0.00000           0.226198            6.15516
    159       0.00000           0.235645            6.41223
    160       0.00000           0.236575            6.43752
    161       0.00000           0.243282            6.62003
    162       0.00000           0.246995            6.72106
    163       0.00000           0.250178            6.80770
    164       0.00000           0.252666            6.87540
    165       0.00000           0.257729            7.01315
    166       0.00000           0.261299            7.11031
    167       0.00000           0.264088            7.18619
    168       0.00000           0.270242            7.35367
    169       0.00000           0.272360            7.41129
[...]
     35       1.00000          -0.705259          -19.19107
     36       1.00000          -0.690641          -18.79329
     37       1.00000          -0.681229          -18.53719
     38       1.00000          -0.678340          -18.45857
     39       1.00000          -0.669151          -18.20854
     40       1.00000          -0.666095          -18.12536
     41       1.00000          -0.642269          -17.47704
     42       1.00000          -0.624628          -16.99699
     43       1.00000          -0.594141          -16.16741
     44       1.00000          -0.574106          -15.62222
     45       1.00000          -0.565535          -15.38900
     46       1.00000          -0.559702          -15.23027
     47       1.00000          -0.542440          -14.76055
     48       1.00000          -0.540563          -14.70946
     49       1.00000          -0.522301          -14.21255
     50       1.00000          -0.519846          -14.14572
     51       1.00000          -0.487540          -13.26664
     52       1.00000          -0.482970          -13.14227
     53       1.00000          -0.470913          -12.81418
     54       1.00000          -0.467655          -12.72553
     55       1.00000          -0.453392          -12.33742
     56       1.00000          -0.451736          -12.29236
     57       1.00000          -0.435543          -11.85174
     58       1.00000          -0.423509          -11.52427
     59       1.00000          -0.417124          -11.35051
     60       1.00000          -0.414190          -11.27068
     61       1.00000          -0.393995          -10.72116
     62       1.00000          -0.389161          -10.58962
     63       1.00000          -0.388265          -10.56524
     64       1.00000          -0.384351          -10.45874
     65       1.00000          -0.381983          -10.39428
     66       1.00000          -0.379043          -10.31428
     67       1.00000          -0.371229          -10.10165
     68       1.00000          -0.369425          -10.05257
     69       1.00000          -0.363411           -9.88890
     70       1.00000          -0.361620           -9.84018
     71       1.00000          -0.352009           -9.57865
     72       1.00000          -0.347288           -9.45019
     73       1.00000          -0.343126           -9.33694
     74       1.00000          -0.337292           -9.17818
     75       1.00000          -0.334209           -9.09429
     76       1.00000          -0.325135           -8.84736
     77       1.00000          -0.316383           -8.60923
     78       1.00000          -0.315166           -8.57609
     79       1.00000          -0.310310           -8.44396
     80       1.00000          -0.309293           -8.41630
     81       1.00000          -0.301342           -8.19994
     82       1.00000          -0.298911           -8.13379
     83       1.00000          -0.289279           -7.87167
     84       1.00000          -0.283838           -7.72362
     85       1.00000          -0.280434           -7.63100
     86       1.00000          -0.253497           -6.89800
     87       1.00000          -0.244439           -6.65151
     88       1.00000          -0.232499           -6.32663
     89       1.00000          -0.229497           -6.24493
     90       1.00000          -0.223673           -6.08646
     91       1.00000          -0.214252           -5.83008
     92       1.00000          -0.183331           -4.98868
     93       1.00000          -0.168519           -4.58563
     94       0.00000          -0.120950           -3.29122
     95       0.00000          -0.073189           -1.99159
     96       0.00000          -0.050134           -1.36421
     97       0.00000          -0.045819           -1.24680
     98       0.00000          -0.040143           -1.09236
     99       0.00000          -0.027317           -0.74335
    100       0.00000          -0.019746           -0.53731
    101       0.00000          -0.004997           -0.13597
    102       0.00000           0.044126            1.20073
    103       0.00000           0.045878            1.24841
    104       0.00000           0.047008            1.27915
    105       0.00000           0.054887            1.49354
    106       0.00000           0.062489            1.70041
    107       0.00000           0.063446            1.72645
    108       0.00000           0.068434            1.86219
    109       0.00000           0.079164            2.15416
    110       0.00000           0.081083            2.20638
    111       0.00000           0.085205            2.31855
    112       0.00000           0.091616            2.49300
    113       0.00000           0.104196            2.83532
    114       0.00000           0.110856            3.01654
    115       0.00000           0.117352            3.19331
    116       0.00000           0.121972            3.31904
    117       0.00000           0.133501            3.63274
    118       0.00000           0.136293            3.70871
    119       0.00000           0.148593            4.04343
    120       0.00000           0.154973            4.21702
    121       0.00000           0.165487            4.50314
    122       0.00000           0.171010            4.65341
    123       0.00000           0.179003            4.87092
    124       0.00000           0.186868            5.08493
    125       0.00000           0.194360            5.28881
    126       0.00000           0.200811            5.46434
    127       0.00000           0.206547            5.62042
    128       0.00000           0.213060            5.79766
    129       0.00000           0.217498            5.91842
    130       0.00000           0.223260            6.07522
    131       0.00000           0.233397            6.35104
    132       0.00000           0.236081            6.42408
    133       0.00000           0.239519            6.51763
    134       0.00000           0.253742            6.90468
    135       0.00000           0.256690            6.98489
    136       0.00000           0.260117            7.07815
    137       0.00000           0.262714            7.14882
    138       0.00000           0.264274            7.19127
    139       0.00000           0.268520            7.30680
    140       0.00000           0.274056            7.45743
    141       0.00000           0.278633            7.58199
    142       0.00000           0.282088            7.67600
    143       0.00000           0.283898            7.72525
    144       0.00000           0.292349            7.95522
    145       0.00000           0.293909            7.99768
    146       0.00000           0.304051            8.27366
    147       0.00000           0.306864            8.35019
    148       0.00000           0.311807            8.48469
    149       0.00000           0.315380            8.58193
    150       0.00000           0.318742            8.67341
    151       0.00000           0.324838            8.83930
    152       0.00000           0.330364            8.98967
    153       0.00000           0.334832            9.11126
    154       0.00000           0.337375            9.18045
    155       0.00000           0.340704            9.27103
    156       0.00000           0.343476            9.34647
    157       0.00000           0.349755            9.51731
    158       0.00000           0.360838            9.81890
    159       0.00000           0.365549            9.94710
    160       0.00000           0.369110           10.04400
    161       0.00000           0.377655           10.27652
    162       0.00000           0.380824           10.36275
    163       0.00000           0.390050           10.61380
    164       0.00000           0.392110           10.66986
    165       0.00000           0.393511           10.70797
    166       0.00000           0.394092           10.72379
    167       0.00000           0.395595           10.76468
    168       0.00000           0.397419           10.81432
    169       0.00000           0.405331           11.02961
    170       0.00000           0.407142           11.07890
    171       0.00000           0.415084           11.29502
    172       0.00000           0.418915           11.39926
    173       0.00000           0.430963           11.72710
    174       0.00000           0.432567           11.77074
    175       0.00000           0.436696           11.88310
    176       0.00000           0.445514           12.12305
    177       0.00000           0.448938           12.21623
    178       0.00000           0.452737           12.31960
    179       0.00000           0.455060           12.38280
    180       0.00000           0.456707           12.42762
    181       0.00000           0.458589           12.47885
    182       0.00000           0.462693           12.59051
    183       0.00000           0.466170           12.68513
    184       0.00000           0.477289           12.98769
    185       0.00000           0.479102           13.03703
    186       0.00000           0.486211           13.23049
    187       0.00000           0.506312           13.77744
    188       0.00000           0.513069           13.96133
    189       0.00000           0.516644           14.05859
    190       0.00000           0.527953           14.36632
    191       0.00000           0.536200           14.59073
    192       0.00000           0.542647           14.76617
    193       0.00000           0.545503           14.84390
    194       0.00000           0.547098           14.88730
    195       0.00000           0.565508           15.38825
    196       0.00000           0.574840           15.64220
    197       0.00000           0.578130           15.73171
    198       0.00000           0.594232           16.16987
    199       0.00000           0.595002           16.19082
    200       0.00000           0.602367           16.39125
    201       0.00000           0.611383           16.63658
    202       0.00000           0.613688           16.69930
    203       0.00000           0.626147           17.03833
    204       0.00000           0.651307           17.72297

  Current spin moment of the entire structure :
  | N = N_up - N_down :    0.00
  | S                 :    0.00
  | J                 :    1.00

  Highest occupied state (VBM) at     -4.58562682 eV
  | Occupation number:      1.00000000
  | Spin channel:        1

  Lowest unoccupied state (CBM) at    -3.29122448 eV
  | Occupation number:      0.00000000
  | Spin channel:        1

  Overall HOMO-LUMO gap:      1.29440235 eV.

  Total energy components:
  | Sum of eigenvalues            :        -613.71415961 Ha      -16700.01197024 eV
  | XC energy correction          :        -158.53289253 Ha       -4313.89949454 eV
  | XC potential correction       :         203.00146729 Ha        5523.95098048 eV
  | Free-atom electrostatic energy:        -471.06753378 Ha      -12818.39978723 eV
  | Hartree energy correction     :         -37.90768585 Ha       -1031.52061520 eV
  | Entropy correction            :           0.00000000 Ha           0.00000000 eV
  | ---------------------------
  | Total energy                  :       -1078.22080448 Ha      -29339.88088673 eV
  | Total energy, T -> 0          :       -1078.22080448 Ha      -29339.88088673 eV  <-- do not rely on this value for anything but (periodic) metals
  | Electronic free energy        :       -1078.22080448 Ha      -29339.88088673 eV

  Derived energy quantities:
  | Kinetic energy                :        1076.73279548 Ha       29299.39010150 eV
  | Electrostatic energy          :       -1996.42070743 Ha      -54325.37149368 eV
  | Energy correction for multipole
  | error in Hartree potential    :           0.37186320 Ha          10.11891258 eV
  | Sum of eigenvalues per atom                           :        -363.04373848 eV
  | Total energy (T->0) per atom                          :        -637.82349754 eV  <-- do not rely on this value for anything but (periodic) metals
  | Electronic free energy per atom                       :        -637.82349754 eV
  End evaluation of scaled ZORA corrections.
  | Time for scaled ZORA corrections            :        1.392 s           0.519 s
------------------------------------------------------------

  Energy and forces in a compact form:
  | Total energy uncorrected      :         -0.293398808867278E+05 eV
  | Total energy corrected        :         -0.293398808867278E+05 eV  <-- do not rely on this value for anything but (periodic) metals
  | Electronic free energy        :         -0.293398808867278E+05 eV

  ------------------------------------ 
  Start decomposition of the XC Energy 
  ------------------------------------ 
  X and C from original XC functional choice 
  Hartree-Fock Energy :          0.000000000 Ha              0.000000000 eV
  X Energy            :       -152.217386530 Ha          -4142.045832458 eV
  C Energy            :         -6.315506000 Ha           -171.853662086 eV
  XC Energy w/o HF    :       -158.532892530 Ha          -4313.899494544 eV
  Total XC Energy     :       -158.532892530 Ha          -4313.899494544 eV
  ------------------------------------ 
  LDA X and C from self-consistent density 
  X Energy LDA        :       -137.088518638 Ha          -3730.368391192 eV
  C Energy LDA        :        -11.983700090 Ha           -326.093070876 eV
  ------------------------------------ 
  End decomposition of the XC Energy 
  ------------------------------------ 

------------------------------------------------------------

------------------------------------------------------------------------------
  Final output of selected total energy values:

  The following output summarizes some interesting total energy values
  at the end of a run (AFTER all relaxation, molecular dynamics, etc.).

  | Total energy of the DFT / Hartree-Fock s.c.f. calculation      :         -29339.880886728 eV
  | Final zero-broadening corrected energy (caution - metals only) :         -29339.880886728 eV
  | For reference only, the value of 1 Hartree used in FHI-aims is :             27.211384500 eV

  Before relying on these values, please be sure to understand exactly which
  total energy value is referred to by a given number. Different objects may
  all carry the same name 'total energy'. Definitions:

  Total energy of the DFT / Hartree-Fock s.c.f. calculation:
  | Note that this energy does not include ANY quantities calculated after the
  | s.c.f. cycle, in particular not ANY RPA, MP2, etc. many-body perturbation terms.
  | Scalar relativistic effects have been included in the 'scaled ZORA' approximation.

  Final zero-broadening corrected energy:
  | For metallic systems only, a broadening of the occupation numbers at the Fermi
  | level can be extrapolated back to zero broadening by an electron-gas inspired
  | formula. For all systems that are not real metals, this value can be
  | meaningless and should be avoided.

------------------------------------------------------------------------------
  Methods described in the following list of references were used in this FHI-aims run.
  If you publish the results, please make sure to cite these reference if they apply.
  FHI-aims is an academic code, and for our developers (often, Ph.D. students
  and postdocs), scientific credit in the community is essential.
  Thank you for helping us!

  For any use of FHI-aims, please cite:

    Volker Blum, Ralf Gehrke, Felix Hanke, Paula Havu, Ville Havu,
    Xinguo Ren, Karsten Reuter, and Matthias Scheffler
    'Ab initio molecular simulations with numeric atom-centered orbitals'
    Computer Physics Communications 180, 2175-2196 (2009)
    http://doi.org/10.1016/j.cpc.2009.06.022


  For calculations of electronic coupling values using the
  Fragment molecular orbital scheme (FO-DFT), please cite:

    Christoph Schober, Karsten Reuter, Harald Oberhofer
    'Critical analysis of fragment-orbital DFT schemes
    for the calculation of electronic coupling values'
    Journal of Chemical Physics, 144, 054103 (2016).


  The ELSI infrastructure was used in your run to solve the Kohn-Sham electronic structure.
  Please check out http://elsi-interchange.org to learn more.
  If scalability is important for your project, please acknowledge ELSI by citing:

    V. W-z. Yu, F. Corsetti, A. Garcia, W. P. Huhn, M. Jacquelin, W. Jia,
    B. Lange, L. Lin, J. Lu, W. Mi, A. Seifitokaldani, A. Vazquez-Mayagoitia,
    C. Yang, H. Yang, and V. Blum
    'ELSI: A unified software interface for Kohn-Sham electronic structure solvers'
    Computer Physics Communications 222, 267-285 (2018).
    http://doi.org/10.1016/j.cpc.2017.09.007


  For the real-space grid partitioning and parallelization used in this calculation, please cite:

    Ville Havu, Volker Blum, Paula Havu, and Matthias Scheffler,
    'Efficient O(N) integration for all-electron electronic structure calculation'
    'using numerically tabulated basis functions'
    Journal of Computational Physics 228, 8367-8379 (2009).
    http://doi.org/10.1016/j.jcp.2009.08.008

  Of course, there are many other important community references, e.g., those cited in the
  above references. Our list is limited to references that describe implementations in the
  FHI-aims code. The reason is purely practical (length of this list) - please credit others as well.

------------------------------------------------------------
          Leaving FHI-aims.
          Date     :  20241106, Time     :  132022.038

          Computational steps:
          | Number of self-consistency cycles          :           13
          | Number of SCF (re)initializations          :            1

          Detailed time accounting                     :  max(cpu_time)    wall_clock(cpu1)
          | Total time                                  :      211.450 s         211.475 s
          | Preparation time                            :        0.184 s           0.359 s
          | Boundary condition initalization            :        0.000 s           0.004 s
          | Grid partitioning                           :        1.528 s           1.555 s
          | Preloading free-atom quantities on grid     :        0.368 s           0.392 s
          | Free-atom superposition energy              :        0.160 s           0.186 s
          | Total time for integrations                 :       10.772 s          11.100 s
          | Total time for solution of K.-S. equations  :      156.938 s         157.337 s
          | Total time for density update               :        5.368 s           5.657 s
          | Total time for mixing                       :        1.032 s           1.361 s
          | Total time for Hartree multipole update     :       19.765 s          20.103 s
          | Total time for Hartree multipole sum        :        5.390 s           5.746 s
          | Total time for total energy evaluation      :        0.006 s           0.373 s
          | Total time for scaled ZORA corrections      :        1.392 s           0.519 s

          Partial memory accounting:
          | Residual value for overall tracked memory usage across tasks:     0.000000 MB (should be 0.000000 MB)
          | Peak values for overall tracked memory usage:
          |   Minimum:       10.364 MB (on task 31 after allocating zora_vector2)
          |   Maximum:       10.938 MB (on task 28 after allocating zora_vector2)
          |   Average:       10.658 MB
          | Largest tracked array allocation:
          |   Minimum:        2.151 MB (zora_vector1 on task 15)
          |   Maximum:        2.325 MB (zora_vector1 on task  4)
          |   Average:        2.251 MB
          Note:  These values currently only include a subset of arrays which are explicitly tracked.
          The "true" memory usage will be greater.

          Have a nice day.
------------------------------------------------------------
