------------------------------------------------------------
          Invoking FHI-aims ...

          When using FHI-aims, please cite the following reference:

            Volker Blum, Ralf Gehrke, Felix Hanke, Paula Havu,
            Ville Havu, Xinguo Ren, Karsten Reuter, and Matthias Scheffler,
            'Ab Initio Molecular Simulations with Numeric Atom-Centered Orbitals',
            Computer Physics Communications 180, 2175-2196 (2009)

          In addition, many other developments in FHI-aims are likely important for
          your particular application. A partial list of references is given at the end of
          this file. Thank you for giving credit to the authors of these developments.

          For any questions about FHI-aims, please visit our slack channel at

            https://fhi-aims.slack.com

          and our main development and support site at

            https://aims-git.rz-berlin.mpg.de .

          The latter site, in particular, has a wiki to collect information, as well
          as an issue tracker to log discussions, suggest improvements, and report issues
          or bugs. https://aims-git.rz-berlin.mpg.de is also the main development site
          of the project and all new and updated code versions can be obtained there.
          Please send an email to aims-coordinators@fhi-berlin.mpg.de and we will add
          you to these sites. They are for you and everyone is welcome there.

------------------------------------------------------------



  Date     :  20241106, Time     :  114748.718
  Time zero on CPU 1             :   0.362561000000000E+00  s.
  Internal wall clock time zero  :           500125668.718  s.

  FHI-aims created a unique identifier for this run for later identification
  aims_uuid : 32A204FB-C0BC-46D2-A6A2-35BD4B94BF3D

  Build configuration of the current instance of FHI-aims
  -------------------------------------------------------
  FHI-aims version      : 221103
  Commit number         : GITDIR-NOTFOUND
  CMake host system     : Linux-3.10.0-1160.59.1.el7.x86_64
  CMake version         : 3.17.5
  Fortran compiler      : /home/spack/spack/opt/spack/linux-centos7-broadwell/gcc-8.2.0/intel-oneapi-mpi-2021.13.1-tc3o22m5brhwlepjze7ymovtbug6ollk/mpi/2021.13/bin/mpiifort (Intel) version 20.2.8.20221119
  Fortran compiler flags: -O3 -ip -fp-model precise
  C compiler            : /home/spack/spack/opt/spack/linux-centos7-broadwell/gcc-8.2.0/intel-oneapi-compilers-2023.0.0-qdtyksft5ugoazragh7yusjezd4gp7hm/compiler/2023.0.0/linux/bin/intel64/icc (Intel) version 20.2.8.20221119
  C compiler flags      : -O3 -ip -fp-model precise -std=gnu99
  HIP compiler          :
  HIP compiler flags    :
  HIP GPU arch          :
  Using MPI
  Using ScaLAPACK
  Using LibXC
  Using i-PI
  Using RLSY
  Linking against: /home/spack/spack/opt/spack/linux-centos7-broadwell/gcc-8.2.0/intel-oneapi-mkl-2024.2.1-2ept5lpbp5bastej6jsrfm45y5ab2lpn/mkl/latest/lib/intel64/libmkl_intel_lp64.so
                   /home/spack/spack/opt/spack/linux-centos7-broadwell/gcc-8.2.0/intel-oneapi-mkl-2024.2.1-2ept5lpbp5bastej6jsrfm45y5ab2lpn/mkl/latest/lib/intel64/libmkl_sequential.so
                   /home/spack/spack/opt/spack/linux-centos7-broadwell/gcc-8.2.0/intel-oneapi-mkl-2024.2.1-2ept5lpbp5bastej6jsrfm45y5ab2lpn/mkl/latest/lib/intel64/libmkl_core.so
                   /home/spack/spack/opt/spack/linux-centos7-broadwell/gcc-8.2.0/intel-oneapi-mkl-2024.2.1-2ept5lpbp5bastej6jsrfm45y5ab2lpn/mkl/latest/lib/intel64/libmkl_blacs_intelmpi_lp64.so
                   /home/spack/spack/opt/spack/linux-centos7-broadwell/gcc-8.2.0/intel-oneapi-mkl-2024.2.1-2ept5lpbp5bastej6jsrfm45y5ab2lpn/mkl/latest/lib/intel64/libmkl_scalapack_lp64.so

  Using       56 parallel tasks.
  Task        0 on host f001 reporting.
  Task        1 on host f001 reporting.
  Task        2 on host f001 reporting.
  Task        3 on host f001 reporting.
  Task        4 on host f001 reporting.
  Task        5 on host f001 reporting.
  Task        6 on host f001 reporting.
  Task        7 on host f001 reporting.
  Task        8 on host f001 reporting.
  Task        9 on host f001 reporting.
  Task       10 on host f001 reporting.
  Task       11 on host f001 reporting.
  Task       12 on host f001 reporting.
  Task       13 on host f001 reporting.
  Task       14 on host f001 reporting.
  Task       15 on host f001 reporting.
  Task       16 on host f001 reporting.
  Task       17 on host f001 reporting.
  Task       18 on host f001 reporting.
  Task       19 on host f001 reporting.
  Task       20 on host f001 reporting.
  Task       21 on host f001 reporting.
  Task       22 on host f001 reporting.
  Task       23 on host f001 reporting.
  Task       24 on host f001 reporting.
  Task       25 on host f001 reporting.
  Task       26 on host f001 reporting.
  Task       27 on host f001 reporting.
  Task       28 on host f001 reporting.
  Task       29 on host f001 reporting.
  Task       30 on host f001 reporting.
  Task       31 on host f001 reporting.
  Task       32 on host f001 reporting.
  Task       33 on host f001 reporting.
  Task       34 on host f001 reporting.
  Task       35 on host f001 reporting.
  Task       36 on host f001 reporting.
  Task       37 on host f001 reporting.
  Task       38 on host f001 reporting.
  Task       39 on host f001 reporting.
  Task       40 on host f001 reporting.
  Task       41 on host f001 reporting.
  Task       42 on host f001 reporting.
  Task       43 on host f001 reporting.
  Task       44 on host f001 reporting.
  Task       45 on host f001 reporting.
  Task       46 on host f001 reporting.
  Task       47 on host f001 reporting.
  Task       48 on host f001 reporting.
  Task       49 on host f001 reporting.
  Task       50 on host f001 reporting.
  Task       51 on host f001 reporting.
  Task       52 on host f001 reporting.
  Task       53 on host f001 reporting.
  Task       54 on host f001 reporting.
  Task       55 on host f001 reporting.

  Performing system and environment tests:
  *** Environment variable OMP_NUM_THREADS is not set
  *** For performance reasons you might want to set it to 1
  | Checking for ScaLAPACK...
  | Testing pdtran()...
  | All pdtran() tests passed.

  Obtaining array dimensions for all initial allocations:
  
  -----------------------------------------------------------------------
  Parsing control.in (first pass over file, find array dimensions only).
  The contents of control.in will be repeated verbatim below
  unless switched off by setting 'verbatim_writeout .false.' .
  in the first line of control.in .
  -----------------------------------------------------------------------
  
  #=====================================================
  #FHI-aims file: ./control.in
  #Created using the Atomic Simulation Environment (ASE)
  #
  #List of parameters used to initialize the calculator:
  #=====================================================
  packed_matrix_format               index
  relativistic                       zora scalar 1e-12
  sc_accuracy_eev                    1E-2
  fo_dft                             fragment
  charge                             0
  sc_iter_limit                      200
  n_max_pulay                        10
  occupation_type                    gaussian 0.01
  sc_accuracy_etot                   1E-6
  xc                                 blyp
  mixer                              pulay
  sc_accuracy_rho                    1E-4
  spin                               collinear
  charge_mix_param                   0.5
  default_initial_moment             0
  #=======================================================
  
  ################################################################################
  #
  #  FHI-aims code project
  #  VB, Fritz-Haber Institut, 2009
  #
  #  Suggested "light" defaults for H atom (to be pasted into control.in file)
  #  Be sure to double-check any results obtained with these settings for post-processing,
  #  e.g., with the "tight" defaults and larger basis sets.
  #
  ################################################################################
    species        H
  #     global species definitions
      nucleus             1
      mass                1.00794
  #
      l_hartree           4
  #
      cut_pot             3.5  1.5  1.0
      basis_dep_cutoff    1e-4
  #
      radial_base         24 5.0
      radial_multiplier   1
      angular_grids       specified
        division   0.2421   50
        division   0.3822  110
        division   0.4799  194
        division   0.5341  302
  #      division   0.5626  434
  #      division   0.5922  590
  #      division   0.6542  770
  #      division   0.6868 1202
  #      outer_grid  770
        outer_grid  302
  ################################################################################
  #
  #  Definition of "minimal" basis
  #
  ################################################################################
  #     valence basis states
      valence      1  s   1.
  #     ion occupancy
      ion_occ      1  s   0.5
  ################################################################################
  #
  #  Suggested additional basis functions. For production calculations,
  #  uncomment them one after another (the most important basis functions are
  #  listed first).
  #
  #  Basis constructed for dimers: 0.5 A, 0.7 A, 1.0 A, 1.5 A, 2.5 A
  #
  ################################################################################
  #  "First tier" - improvements: -1014.90 meV to -62.69 meV
       hydro 2 s 2.1
       hydro 2 p 3.5
  #  "Second tier" - improvements: -12.89 meV to -1.83 meV
  #     hydro 1 s 0.85
  #     hydro 2 p 3.7
  #     hydro 2 s 1.2
  #     hydro 3 d 7
  #  "Third tier" - improvements: -0.25 meV to -0.12 meV
  #     hydro 4 f 11.2
  #     hydro 3 p 4.8
  #     hydro 4 d 9
  #     hydro 3 s 3.2
  ################################################################################
  #
  #  FHI-aims code project
  #  VB, Fritz-Haber Institut, 2009
  #
  #  Suggested "light" defaults for C atom (to be pasted into control.in file)
  #  Be sure to double-check any results obtained with these settings for post-processing,
  #  e.g., with the "tight" defaults and larger basis sets.
  #
  ################################################################################
    species        C
  #     global species definitions
      nucleus             6
      mass                12.0107
  #
      l_hartree           4
  #
      cut_pot             3.5  1.5  1.0
      basis_dep_cutoff    1e-4
  #
      radial_base         34 5.0
      radial_multiplier   1
      angular_grids specified
        division   0.3326   50
        division   0.5710  110
        division   0.7727  194
        division   0.8772  302
  #      division   0.9334  434
  #      division   0.9625  590
  #      division   0.9924  770
  #      division   1.0230  974
  #      division   1.4589 1202
  #     outer_grid  974
       outer_grid 302
  ################################################################################
  #
  #  Definition of "minimal" basis
  #
  ################################################################################
  #     valence basis states
      valence      2  s   2.
      valence      2  p   2.
  #     ion occupancy
      ion_occ      2  s   1.
      ion_occ      2  p   1.
  ################################################################################
  #
  #  Suggested additional basis functions. For production calculations,
  #  uncomment them one after another (the most important basis functions are
  #  listed first).
  #
  #  Constructed for dimers: 1.0 A, 1.25 A, 1.5 A, 2.0 A, 3.0 A
  #
  ################################################################################
  #  "First tier" - improvements: -1214.57 meV to -155.61 meV
       hydro 2 p 1.7
       hydro 3 d 6
       hydro 2 s 4.9
  #  "Second tier" - improvements: -67.75 meV to -5.23 meV
  #     hydro 4 f 9.8
  #     hydro 3 p 5.2
  #     hydro 3 s 4.3
  #     hydro 5 g 14.4
  #     hydro 3 d 6.2
  #  "Third tier" - improvements: -2.43 meV to -0.60 meV
  #     hydro 2 p 5.6
  #     hydro 2 s 1.4
  #     hydro 3 d 4.9
  #     hydro 4 f 11.2
  #  "Fourth tier" - improvements: -0.39 meV to -0.18 meV
  #     hydro 2 p 2.1
  #     hydro 5 g 16.4
  #     hydro 4 d 13.2
  #     hydro 3 s 13.6
  #     hydro 4 f 17.6
  #  Further basis functions - improvements: -0.08 meV and below
  #     hydro 3 s 2
  #     hydro 3 p 6
  #     hydro 4 d 20
  
  -----------------------------------------------------------------------
  Completed first pass over input file control.in .
  -----------------------------------------------------------------------
  
  
  -----------------------------------------------------------------------
  Parsing geometry.in (first pass over file, find array dimensions only).
  The contents of geometry.in will be repeated verbatim below
  unless switched off by setting 'verbatim_writeout .false.' .
  in the first line of geometry.in .
  -----------------------------------------------------------------------
  
  #=======================================================
  #FHI-aims file: ./geometry.in
  #Created using the Atomic Simulation Environment (ASE)
  #=======================================================
  atom 38.8222807900000006 6.9393551798346316 24.2863544746540008 H
  atom 37.5517251499999958 7.0424344691939513 26.4403106868955717 H
  atom 38.8029135200000042 7.8571698448913345 24.8733030135659163 C
  atom 38.0969098799999983 7.9135884444462175 26.0764116506180059 C
  atom 36.7592352799999986 15.6808973612965641 33.3890386440912152 H
  atom 36.2223620099999977 16.9266047540255364 35.4397353911538460 H
  atom 37.5204395599999998 14.5155336035370777 31.3419650361576743 H
  atom 37.6647923700000007 10.6799017022782223 28.8940816620690057 H
  atom 37.6079451199999966 12.7260827456245220 30.1664828349648673 H
  atom 37.5220861700000015 9.0867125465147538 27.7602655608606845 H
  atom 37.0696604700000023 16.7219179862235521 33.4719179516690559 C
  atom 37.7963643500000046 17.3098277499811211 32.4320770216213958 C
  atom 36.7657433100000048 17.4272562916818821 34.6419654441682354 C
  atom 38.9662415499999994 17.3060640500354879 30.1993175333222084 C
  atom 38.6715767700000015 15.1553985009247238 29.5000516814086282 C
  atom 38.0365341800000039 15.3077435042802907 30.8084577993997755 C
  atom 38.1997837999999987 16.6068227791075813 31.2371204476097546 C
  atom 38.6997259599999950 13.9211600277691669 28.7244734615886728 C
  atom 38.7605721199999991 11.4890122890130879 27.2038872583504308 C
  atom 38.1390160499999951 11.5589870790229678 28.4642867828811923 C
  atom 38.1074168199999974 12.7367799675141811 29.2000104722811997 C
  atom 38.7792336999999989 10.2388714513245080 26.4099668966894789 C
  atom 38.0865597600000001 9.0852522974704559 26.8304774818590133 C
  atom 39.7853908200000035 16.6047855109148443 28.2396521568778631 H
  atom 39.8072672099999991 14.7389420678404530 27.0462807062351942 H
  atom 39.8640360499999957 12.6989185792102592 25.7704828404058155 H
  atom 40.0616292499999957 11.0050385324278412 24.8318633597769960 H
  atom 40.0733907500000015 8.9577245725917809 23.5137200553764281 H
  atom 39.2315809899999977 16.3729769667447762 29.1429460309980968 C
  atom 39.3252809399999990 13.8556856893313238 27.4629417060800733 C
  atom 39.3556256100000041 12.6791204048663744 26.7315204943958520 C
  atom 39.4882169199999993 10.1554721984332001 25.1948566112722929 C
  atom 39.4992727300000013 8.9868294176098154 24.4392056566623097 C
  atom 36.9692956700000011 19.2659035349818524 35.7343418915876399 H
  atom 38.1481900200000013 21.2453009342527288 34.8561835451754405 H
  atom 37.1723775700000019 18.7377047581384062 34.8029686892169963 C
  atom 37.8957098200000004 19.3883674164900270 33.7742236227521602 C
  atom 38.3584072299999974 20.7236176811821657 33.9220929884579832 C
  atom 39.0807985600000052 21.3381750255778151 32.9178041111144779 C
  atom 38.9612233100000012 19.3275512277409902 31.5478046279288691 C
  atom 38.2040179400000000 18.6742019900181830 32.5760968020025672 C
  atom 39.4352901700000018 22.3606651652301771 33.0332916708540978 H
  atom 39.9583632800000004 21.1356181896012458 30.9558742727144605 H
  atom 39.9049660700000004 19.1350569132754273 29.5919888368091826 H
  atom 39.3773451799999989 20.6458386977262904 31.7350756316634985 C
  atom 39.3223797699999977 18.6163087949810055 30.3542067310906276 C
  
  -----------------------------------------------------------------------
  Completed first pass over input file geometry.in .
  -----------------------------------------------------------------------
  

  Basic array size parameters:
  | Number of species                 :        2
  | Number of atoms                   :       46
  | Max. basis fn. angular momentum   :        2
  | Max. atomic/ionic basis occupied n:        2
  | Max. number of basis fn. types    :        2
  | Max. radial fns per species/type  :        3
  | Max. logarithmic grid size        :     1277
  | Max. radial integration grid size :       34
  | Max. angular integration grid size:      302
  | Max. angular grid division number :        8
  | Radial grid for Hartree potential :     1277
  | Number of spin channels           :        2

------------------------------------------------------------
          Reading file control.in.
------------------------------------------------------------
  Using packed matrix format  2
  Scalar relativistic treatment of kinetic energy: ZORA.
  Threshold value for ZORA:   0.100000E-11
  Convergence accuracy of sum of eigenvalues:  0.1000E-01
  Charge =   0.000000E+00: Neutral system requested explicitly.
  Maximum number of s.-c. iterations  :   200
  Pulay mixing - number of memorized iterations:   10
  Occupation type: Gaussian broadening, width =   0.100000E-01 eV.
  Convergence accuracy of total energy:  0.1000E-05
  XC: Using BLYP gradient-corrected functional.
  Using pulay charge density mixing.
  Convergence accuracy of self-consistent charge density:  0.1000E-03
  Spin treatment: Spin density functional theory - collinear spins.
  Charge density mixing - mixing parameter:     0.5000
  Initial spin moment per atom:   0.0000
 
  Reading configuration options for species H                   .
  | Found nuclear charge :   1.0000
  | Found atomic mass :    1.00794000000000      amu
  | Found l_max for Hartree potential  :   4
  | Found cutoff potl. onset [A], width [A], scale factor :    3.50000    1.50000    1.00000
  | Threshold for basis-dependent cutoff potential is   0.100000E-03
  | Found data for basic radial integration grid :    24 points, outermost radius =    5.000 A
  | Found multiplier for basic radial grid :   1
  | Found angular grid specification: user-specified.
  | Specified grid contains     5 separate shells.
  | Check grid settings after all constraints further below.
  | Found free-atom valence shell :  1 s   1.000
  | No ionic wave fns used. Skipping ion_occ.
  | Found hydrogenic basis function :  2 s   2.100
  | Found hydrogenic basis function :  2 p   3.500
  Species H                   : Missing cutoff potential type.
  Defaulting to exp(1/x)/(1-x)^2 type cutoff potential.
  Species H : No 'logarithmic' tag. Using default grid for free atom:
  | Default logarithmic grid data [bohr] : 0.1000E-03 0.1000E+03 0.1012E+01
  Species H : On-site basis accuracy parameter (for Gram-Schmidt orthonormalisation) not specified.
  Using default value basis_acc =  0.1000000E-03.
  Species H                   : Using default innermost maximum threshold i_radial=  2 for radial functions.
  Species H                   : Default cutoff onset for free atom density etc. : 0.35000000E+01 AA.
  Species H                   : Basic radial grid will be enhanced according to radial_multiplier =   1, to contain    24 grid points.
 
  Reading configuration options for species C                   .
  | Found nuclear charge :   6.0000
  | Found atomic mass :    12.0107000000000      amu
  | Found l_max for Hartree potential  :   4
  | Found cutoff potl. onset [A], width [A], scale factor :    3.50000    1.50000    1.00000
  | Threshold for basis-dependent cutoff potential is   0.100000E-03
  | Found data for basic radial integration grid :    34 points, outermost radius =    5.000 A
  | Found multiplier for basic radial grid :   1
  | Found angular grid specification: user-specified.
  | Specified grid contains     5 separate shells.
  | Check grid settings after all constraints further below.
  | Found free-atom valence shell :  2 s   2.000
  | Found free-atom valence shell :  2 p   2.000
  | No ionic wave fns used. Skipping ion_occ.
  | No ionic wave fns used. Skipping ion_occ.
  | Found hydrogenic basis function :  2 p   1.700
  | Found hydrogenic basis function :  3 d   6.000
  | Found hydrogenic basis function :  2 s   4.900
  Species C                   : Missing cutoff potential type.
  Defaulting to exp(1/x)/(1-x)^2 type cutoff potential.
  Species C : No 'logarithmic' tag. Using default grid for free atom:
  | Default logarithmic grid data [bohr] : 0.1000E-03 0.1000E+03 0.1012E+01
  Species C : On-site basis accuracy parameter (for Gram-Schmidt orthonormalisation) not specified.
  Using default value basis_acc =  0.1000000E-03.
  Species C                   : Using default innermost maximum threshold i_radial=  2 for radial functions.
  Species C                   : Default cutoff onset for free atom density etc. : 0.35000000E+01 AA.
  Species C                   : Basic radial grid will be enhanced according to radial_multiplier =   1, to contain    34 grid points.
 
  Finished reading input file 'control.in'.
 
------------------------------------------------------------


------------------------------------------------------------
          Reading geometry description geometry.in.
------------------------------------------------------------
  | The smallest distance between any two atoms is         1.08461069 AA.
  | The first atom of this pair is atom number                     24 .
  | The second atom of this pair is atom number                    29 .
  Input structure read successfully.
  The structure contains       46 atoms,  and a total of        186.000 electrons.

  Input geometry:
  | No unit cell requested.
  | Atomic structure:
  |       Atom                x [A]            y [A]            z [A]
  |    1: Species H            38.82228079        6.93935518       24.28635447
  |    2: Species H            37.55172515        7.04243447       26.44031069
  |    3: Species C            38.80291352        7.85716984       24.87330301
  |    4: Species C            38.09690988        7.91358844       26.07641165
  |    5: Species H            36.75923528       15.68089736       33.38903864
  |    6: Species H            36.22236201       16.92660475       35.43973539
  |    7: Species H            37.52043956       14.51553360       31.34196504
  |    8: Species H            37.66479237       10.67990170       28.89408166
  |    9: Species H            37.60794512       12.72608275       30.16648283
  |   10: Species H            37.52208617        9.08671255       27.76026556
  |   11: Species C            37.06966047       16.72191799       33.47191795
  |   12: Species C            37.79636435       17.30982775       32.43207702
  |   13: Species C            36.76574331       17.42725629       34.64196544
  |   14: Species C            38.96624155       17.30606405       30.19931753
  |   15: Species C            38.67157677       15.15539850       29.50005168
  |   16: Species C            38.03653418       15.30774350       30.80845780
  |   17: Species C            38.19978380       16.60682278       31.23712045
  |   18: Species C            38.69972596       13.92116003       28.72447346
  |   19: Species C            38.76057212       11.48901229       27.20388726
  |   20: Species C            38.13901605       11.55898708       28.46428678
  |   21: Species C            38.10741682       12.73677997       29.20001047
  |   22: Species C            38.77923370       10.23887145       26.40996690
  |   23: Species C            38.08655976        9.08525230       26.83047748
  |   24: Species H            39.78539082       16.60478551       28.23965216
  |   25: Species H            39.80726721       14.73894207       27.04628071
  |   26: Species H            39.86403605       12.69891858       25.77048284
  |   27: Species H            40.06162925       11.00503853       24.83186336
  |   28: Species H            40.07339075        8.95772457       23.51372006
  |   29: Species C            39.23158099       16.37297697       29.14294603
  |   30: Species C            39.32528094       13.85568569       27.46294171
  |   31: Species C            39.35562561       12.67912040       26.73152049
  |   32: Species C            39.48821692       10.15547220       25.19485661
  |   33: Species C            39.49927273        8.98682942       24.43920566
  |   34: Species H            36.96929567       19.26590353       35.73434189
  |   35: Species H            38.14819002       21.24530093       34.85618355
  |   36: Species C            37.17237757       18.73770476       34.80296869
  |   37: Species C            37.89570982       19.38836742       33.77422362
  |   38: Species C            38.35840723       20.72361768       33.92209299
  |   39: Species C            39.08079856       21.33817503       32.91780411
  |   40: Species C            38.96122331       19.32755123       31.54780463
  |   41: Species C            38.20401794       18.67420199       32.57609680
  |   42: Species H            39.43529017       22.36066517       33.03329167
  |   43: Species H            39.95836328       21.13561819       30.95587427
  |   44: Species H            39.90496607       19.13505691       29.59198884
  |   45: Species C            39.37734518       20.64583870       31.73507563
  |   46: Species C            39.32237977       18.61630879       30.35420673

  Initial moments and charges:
  |  Atom   Moment         Charge        Species
  |     1   0.000000E+00   0.000000E+00   H
  |     2   0.000000E+00   0.000000E+00   H
  |     3   0.000000E+00   0.000000E+00   C
  |     4   0.000000E+00   0.000000E+00   C
  |     5   0.000000E+00   0.000000E+00   H
  |     6   0.000000E+00   0.000000E+00   H
  |     7   0.000000E+00   0.000000E+00   H
  |     8   0.000000E+00   0.000000E+00   H
  |     9   0.000000E+00   0.000000E+00   H
  |    10   0.000000E+00   0.000000E+00   H
  |    11   0.000000E+00   0.000000E+00   C
  |    12   0.000000E+00   0.000000E+00   C
  |    13   0.000000E+00   0.000000E+00   C
  |    14   0.000000E+00   0.000000E+00   C
  |    15   0.000000E+00   0.000000E+00   C
  |    16   0.000000E+00   0.000000E+00   C
  |    17   0.000000E+00   0.000000E+00   C
  |    18   0.000000E+00   0.000000E+00   C
  |    19   0.000000E+00   0.000000E+00   C
  |    20   0.000000E+00   0.000000E+00   C
  |    21   0.000000E+00   0.000000E+00   C
  |    22   0.000000E+00   0.000000E+00   C
  |    23   0.000000E+00   0.000000E+00   C
  |    24   0.000000E+00   0.000000E+00   H
  |    25   0.000000E+00   0.000000E+00   H
  |    26   0.000000E+00   0.000000E+00   H
  |    27   0.000000E+00   0.000000E+00   H
  |    28   0.000000E+00   0.000000E+00   H
  |    29   0.000000E+00   0.000000E+00   C
  |    30   0.000000E+00   0.000000E+00   C
  |    31   0.000000E+00   0.000000E+00   C
  |    32   0.000000E+00   0.000000E+00   C
  |    33   0.000000E+00   0.000000E+00   C
  |    34   0.000000E+00   0.000000E+00   H
  |    35   0.000000E+00   0.000000E+00   H
  |    36   0.000000E+00   0.000000E+00   C
  |    37   0.000000E+00   0.000000E+00   C
  |    38   0.000000E+00   0.000000E+00   C
  |    39   0.000000E+00   0.000000E+00   C
  |    40   0.000000E+00   0.000000E+00   C
  |    41   0.000000E+00   0.000000E+00   C
  |    42   0.000000E+00   0.000000E+00   H
  |    43   0.000000E+00   0.000000E+00   H
  |    44   0.000000E+00   0.000000E+00   H
  |    45   0.000000E+00   0.000000E+00   C
  |    46   0.000000E+00   0.000000E+00   C

 
  Finished reading input file 'geometry.in'.
 

 
  Consistency checks for stacksize environment parameter are next.
 
  | Maximum stacksize for task 0: unlimited
  | Maximum stacksize for task 1: unlimited
  | Maximum stacksize for task 2: unlimited
  | Maximum stacksize for task 3: unlimited
  | Maximum stacksize for task 4: unlimited
  | Maximum stacksize for task 5: unlimited
  | Maximum stacksize for task 6: unlimited
  | Maximum stacksize for task 7: unlimited
  | Maximum stacksize for task 8: unlimited
  | Maximum stacksize for task 9: unlimited
  | Maximum stacksize for task 10: unlimited
  | Maximum stacksize for task 11: unlimited
  | Maximum stacksize for task 12: unlimited
  | Maximum stacksize for task 13: unlimited
  | Maximum stacksize for task 14: unlimited
  | Maximum stacksize for task 15: unlimited
  | Maximum stacksize for task 16: unlimited
  | Maximum stacksize for task 17: unlimited
  | Maximum stacksize for task 18: unlimited
  | Maximum stacksize for task 19: unlimited
  | Maximum stacksize for task 20: unlimited
  | Maximum stacksize for task 21: unlimited
  | Maximum stacksize for task 22: unlimited
  | Maximum stacksize for task 23: unlimited
  | Maximum stacksize for task 24: unlimited
  | Maximum stacksize for task 25: unlimited
  | Maximum stacksize for task 26: unlimited
  | Maximum stacksize for task 27: unlimited
  | Maximum stacksize for task 28: unlimited
  | Maximum stacksize for task 29: unlimited
  | Maximum stacksize for task 30: unlimited
  | Maximum stacksize for task 31: unlimited
  | Maximum stacksize for task 32: unlimited
  | Maximum stacksize for task 33: unlimited
  | Maximum stacksize for task 34: unlimited
  | Maximum stacksize for task 35: unlimited
  | Maximum stacksize for task 36: unlimited
  | Maximum stacksize for task 37: unlimited
  | Maximum stacksize for task 38: unlimited
  | Maximum stacksize for task 39: unlimited
  | Maximum stacksize for task 40: unlimited
  | Maximum stacksize for task 41: unlimited
  | Maximum stacksize for task 42: unlimited
  | Maximum stacksize for task 43: unlimited
  | Maximum stacksize for task 44: unlimited
  | Maximum stacksize for task 45: unlimited
  | Maximum stacksize for task 46: unlimited
  | Maximum stacksize for task 47: unlimited
  | Maximum stacksize for task 48: unlimited
  | Maximum stacksize for task 49: unlimited
  | Maximum stacksize for task 50: unlimited
  | Maximum stacksize for task 51: unlimited
  | Maximum stacksize for task 52: unlimited
  | Maximum stacksize for task 53: unlimited
  | Maximum stacksize for task 54: unlimited
  | Maximum stacksize for task 55: unlimited
  | Current stacksize for task 0: unlimited
  | Current stacksize for task 1: unlimited
  | Current stacksize for task 2: unlimited
  | Current stacksize for task 3: unlimited
  | Current stacksize for task 4: unlimited
  | Current stacksize for task 5: unlimited
  | Current stacksize for task 6: unlimited
  | Current stacksize for task 7: unlimited
  | Current stacksize for task 8: unlimited
  | Current stacksize for task 9: unlimited
  | Current stacksize for task 10: unlimited
  | Current stacksize for task 11: unlimited
  | Current stacksize for task 12: unlimited
  | Current stacksize for task 13: unlimited
  | Current stacksize for task 14: unlimited
  | Current stacksize for task 15: unlimited
  | Current stacksize for task 16: unlimited
  | Current stacksize for task 17: unlimited
  | Current stacksize for task 18: unlimited
  | Current stacksize for task 19: unlimited
  | Current stacksize for task 20: unlimited
  | Current stacksize for task 21: unlimited
  | Current stacksize for task 22: unlimited
  | Current stacksize for task 23: unlimited
  | Current stacksize for task 24: unlimited
  | Current stacksize for task 25: unlimited
  | Current stacksize for task 26: unlimited
  | Current stacksize for task 27: unlimited
  | Current stacksize for task 28: unlimited
  | Current stacksize for task 29: unlimited
  | Current stacksize for task 30: unlimited
  | Current stacksize for task 31: unlimited
  | Current stacksize for task 32: unlimited
  | Current stacksize for task 33: unlimited
  | Current stacksize for task 34: unlimited
  | Current stacksize for task 35: unlimited
  | Current stacksize for task 36: unlimited
  | Current stacksize for task 37: unlimited
  | Current stacksize for task 38: unlimited
  | Current stacksize for task 39: unlimited
  | Current stacksize for task 40: unlimited
  | Current stacksize for task 41: unlimited
  | Current stacksize for task 42: unlimited
  | Current stacksize for task 43: unlimited
  | Current stacksize for task 44: unlimited
  | Current stacksize for task 45: unlimited
  | Current stacksize for task 46: unlimited
  | Current stacksize for task 47: unlimited
  | Current stacksize for task 48: unlimited
  | Current stacksize for task 49: unlimited
  | Current stacksize for task 50: unlimited
  | Current stacksize for task 51: unlimited
  | Current stacksize for task 52: unlimited
  | Current stacksize for task 53: unlimited
  | Current stacksize for task 54: unlimited
  | Current stacksize for task 55: unlimited
 
  Consistency checks for the contents of control.in are next.
 
  MPI_IN_PLACE appears to work with this MPI implementation.
  | Keeping use_mpi_in_place .true. (see manual).
  Target number of points in a grid batch is not set. Defaulting to  100
  Method for grid partitioning is not set. Defaulting to parallel hash+maxmin partitioning.
  Batch size limit is not set. Defaulting to    200
  By default, will store active basis functions for each batch.
  If in need of memory, prune_basis_once .false. can be used to disable this option.
  communication_type for Hartree potential was not specified.
  Defaulting to calc_hartree .
  Pulay mixer: Number of initial linear mixing iterations not set.
  Defaulting to    0 iterations.
  Work space size for distributed Hartree potential not set.
  Defaulting to   0.200000E+03 MB.
  Mixing parameter for spin density mixing has not been set.
  Using charge_mix_param as default:     0.5000.
  Algorithm-dependent basis array size parameters:
  | n_max_pulay                         :       10
  Presetting      1001 iterations before the initial mixing cycle
  is restarted anyway using the sc_init_iter criterion / keyword.
  Presetting a factor      1.000 between actual scf density residual
  and density convergence criterion sc_accuracy_rho below which sc_init_iter
  takes no effect.
  Calculation of forces was not defined in control.in. No forces will be calculated.
  Geometry relaxation not requested: no relaxation will be performed.
  No accuracy limit for integral partition fn. given. Defaulting to  0.1000E-14.
  No threshold value for u(r) in integrations given. Defaulting to  0.1000E-05.
  No accuracy for occupation numbers given. Defaulting to  0.1000E-12.
  No threshold value for occupation numbers given. Defaulting to  0.0000E+00.
  No accuracy for fermi level given. Defaulting to  0.1000E-19.
  Maximum # of iterations to find E_F not set. Defaulting to  200.
  Preferred method for the eigenvalue solver ('KS_method') not specified in 'control.in'.
  Calling BLACS routine to test compilation state
  Since ScaLAPACK support is enabled, defaulting to ELPA (via ELSI).
  Will not use alltoall communication since running on < 1024 CPUs.
  Threshold for basis singularities not set.
  Default threshold for basis singularities:  0.1000E-04
  partition_type (choice of integration weights) for integrals was not specified.
  | Using a version of the partition function of Stratmann and coworkers ('stratmann_sparse').
  | At each grid point, the set of atoms used to build the partition table is smoothly restricted to
  | only those atoms whose free-atom density would be non-zero at that grid point.
  Partitioning for Hartree potential was not defined. Using partition_type for integrals.
  | Adjusted default value of keyword multip_moments_threshold to:       0.10000000E-11
  | This value may affect high angular momentum components of the Hartree potential in periodic systems.
  No q(lm)/r^(l+1) cutoff set for long-range Hartree potential.
  | Using default value of  0.100000E-09 .
  | Verify using the multipole_threshold keyword.
  Defaulting to new monopole extrapolation.
  Density update method: automatic selection selected.
  Charge integration errors on the 3D integration grid will be compensated
  by explicit normalization and distribution of residual charges.
  Use the "compensate_multipole_errors" flag to change this behaviour.
  Set 'collect_eigenvectors' to be '.true.' for use_density_matrix .false.
  Set 'collect_eigenvectors' to be '.true.' for fo_dft.
 
  Consistency checks for the contents of geometry.in are next.
 
  Number of empty states per atom not set in control.in - providing a guess from actual geometry.
  | Total number of empty states used during s.c.f. cycle:      111
  If you use a very high smearing, use empty_states (per atom!) in control.in to increase this value.

  Structure-dependent array size parameters: 
  | Number of distinct atom types in initial rho :        2
  | Maximum number of distinct radial functions  :        9
  | Maximum number of basis functions            :      482
  | Number of Kohn-Sham states (occupied + empty):      204
------------------------------------------------------------

------------------------------------------------------------
          Preparing all fixed parts of the calculation.
------------------------------------------------------------
  Determining machine precision:
    2.225073858507201E-308
  Setting up grids for atomic and cluster calculations.

  Creating wave function, potential, and density for free atoms.
  Runtime choices for atomic solver:
  | atomic solver xc        : BLYP
  | compute density gradient: 1
  | compute kinetic density : F

  Species: H

  List of occupied orbitals and eigenvalues:
    n    l              occ      energy [Ha]    energy [eV]
    1    0           1.0000        -0.238990        -6.5032


  Species: C

  List of occupied orbitals and eigenvalues:
    n    l              occ      energy [Ha]    energy [eV]
    1    0           2.0000       -10.067089      -273.9394
    2    0           2.0000        -0.497842       -13.5470
    2    1           2.0000        -0.189944        -5.1687

  Spin-polarized or charged system:
  Charge density initialized according to selected moments and charges.

  Creating spin-polarized density from free atoms.

  Species: H
  Charge:   0.000000
  Moment:   0.000000

  List of occupied orbitals and eigenvalues:
    n    l      energy [Ha]    energy [eV]    occupation
  Spin-up
    1    0        -0.225604        -6.1390     0.50000000
  Spin-down
    1    0        -0.225604        -6.1390     0.50000000


  Species: C
  Charge:   0.000000
  Moment:   0.000000

  List of occupied orbitals and eigenvalues:
    n    l      energy [Ha]    energy [eV]    occupation
  Spin-up
    1    0       -10.049586      -273.4632     1.00000000
    2    0        -0.489543       -13.3211     1.00000000
    2    1        -0.180931        -4.9234     1.00000000
  Spin-down
    1    0       -10.049586      -273.4632     1.00000000
    2    0        -0.489543       -13.3211     1.00000000
    2    1        -0.180931        -4.9234     1.00000000


  Adding cutoff potential to free-atom effective potential.
  Creating fixed part of basis set: Ionic, confined, hydrogenic.
 
  H                    hydrogenic:
 
  List of hydrogenic basis orbitals: 
    n    l      effective z      eigenvalue [eV]  inner max. [A]     outer max. [A]     outer radius [A]   
    2    0         2.100000       -14.9728           0.193243           1.317208           4.583499
    2    1         3.500000       -41.6669           0.602369           0.602369           3.723403
 
 
  C                    hydrogenic:
 
  List of hydrogenic basis orbitals: 
    n    l      effective z      eigenvalue [eV]  inner max. [A]     outer max. [A]     outer radius [A]   
    2    1         1.700000        -9.7616           1.230570           1.230570           4.607917
    3    2         6.000000       -54.4224           0.792453           0.792453           3.883070
    2    0         4.900000       -81.6679           0.082559           0.562749           3.078220
 
  Creating atomic-like basis functions for current effective potential.

  Species H                   :

  List of atomic basis orbitals and eigenvalues:
    n    l      energy [Ha]    energy [eV]    outer radius [A]
    1    0        -0.238990        -6.5032       4.527807


  Species C                   :

  List of atomic basis orbitals and eigenvalues:
    n    l      energy [Ha]    energy [eV]    outer radius [A]
    1    0       -10.067089      -273.9394       1.934409
    2    0        -0.497842       -13.5470       4.496620
    2    1        -0.189944        -5.1687       4.551928

  Assembling full basis from fixed parts.
  | Species H :   atomic orbital   1 s accepted.
  | Species H :    hydro orbital   2 s accepted.
  | Species H :    hydro orbital   2 p accepted.
  | Species C :   atomic orbital   1 s accepted.
  | Species C :    hydro orbital   2 s accepted.
  | Species C :   atomic orbital   2 s accepted.
  | Species C :   atomic orbital   2 p accepted.
  | Species C :    hydro orbital   2 p accepted.
  | Species C :    hydro orbital   3 d accepted.
 
  Basis size parameters after reduction:
  | Total number of radial functions:        9
  | Total number of basis functions :      482
 
  Per-task memory consumption for arrays in subroutine allocate_ext:
  |           2.218912MB.
  Testing on-site integration grid accuracy.
  |  Species  Function  <phi|h_atom|phi> (log., in eV)  <phi|h_atom|phi> (rad., in eV)
           1        1                 -6.5044527913                 -6.5032312304
           1        2                 13.5128264660                 13.5186953162
           1        3                 25.3317713414                 25.3319138181
           2        4               -273.9394205892               -273.9393868748
           2        5                -10.6145279052                -10.6144887969
           2        6                 17.1727568254                 17.1688026287
           2        7                 -5.1704957803                 -5.1720974370
           2        8                  8.7521213222                  8.7293892811
           2        9                 27.7044268360                 27.7044408576

  Preparing densities etc. for the partition functions (integrals / Hartree potential).

  Preparations completed.
  max(cpu_time)          :      0.184 s.
  Wall clock time (cpu1) :      0.355 s.
------------------------------------------------------------

  Initializing index lists of integration centers etc. from given atomic structure:
  | Number of centers in hartree potential         :        46
  | Number of centers in hartree multipole         :        46
  | Number of centers in electron density summation:        46
  | Number of centers in basis integrals           :        46
  | Number of centers in integrals                 :        46
  | Number of centers in hamiltonian               :        46

------------------------------------------------------------
          Begin self-consistency loop: Initialization.

          Date     :  20241106, Time     :  114749.787
------------------------------------------------------------
  * Using 56 tasks for Scalapack Eigenvalue solver.
  Detailed listing of tasks and assigned k-points:
  (for non-periodic systems, the "k-point" denotes an internal label only)
   Task     0 k-point     1 on f001
   Task     1 k-point     1 on f001
   Task     2 k-point     1 on f001
   Task     3 k-point     1 on f001
   Task     4 k-point     1 on f001
   Task     5 k-point     1 on f001
   Task     6 k-point     1 on f001
   Task     7 k-point     1 on f001
   Task     8 k-point     1 on f001
   Task     9 k-point     1 on f001
   Task    10 k-point     1 on f001
   Task    11 k-point     1 on f001
   Task    12 k-point     1 on f001
   Task    13 k-point     1 on f001
   Task    14 k-point     1 on f001
   Task    15 k-point     1 on f001
   Task    16 k-point     1 on f001
   Task    17 k-point     1 on f001
   Task    18 k-point     1 on f001
   Task    19 k-point     1 on f001
   Task    20 k-point     1 on f001
   Task    21 k-point     1 on f001
   Task    22 k-point     1 on f001
   Task    23 k-point     1 on f001
   Task    24 k-point     1 on f001
   Task    25 k-point     1 on f001
   Task    26 k-point     1 on f001
   Task    27 k-point     1 on f001
   Task    28 k-point     1 on f001
   Task    29 k-point     1 on f001
   Task    30 k-point     1 on f001
   Task    31 k-point     1 on f001
   Task    32 k-point     1 on f001
   Task    33 k-point     1 on f001
   Task    34 k-point     1 on f001
   Task    35 k-point     1 on f001
   Task    36 k-point     1 on f001
   Task    37 k-point     1 on f001
   Task    38 k-point     1 on f001
   Task    39 k-point     1 on f001
   Task    40 k-point     1 on f001
   Task    41 k-point     1 on f001
   Task    42 k-point     1 on f001
   Task    43 k-point     1 on f001
   Task    44 k-point     1 on f001
   Task    45 k-point     1 on f001
   Task    46 k-point     1 on f001
   Task    47 k-point     1 on f001
   Task    48 k-point     1 on f001
   Task    49 k-point     1 on f001
   Task    50 k-point     1 on f001
   Task    51 k-point     1 on f001
   Task    52 k-point     1 on f001
   Task    53 k-point     1 on f001
   Task    54 k-point     1 on f001
   Task    55 k-point     1 on f001
  Tasks:    56 split into      8 X      7 BLACS grid
  Calculating block size based on n_basis =          482  max_nprow =            8  max_npcol =            7
  ScaLAPACK block size set to:           16
  Allocating        0.039 MB for ovlp
  Allocating        0.078 MB for ham
  Allocating        0.078 MB for eigenvec
  Required Scalapack workspace - INTEGER:            1  REAL:             1
  Partitioning the integration grid into batches with parallel hashing+maxmin method.
  | Number of batches:     2294
  | Maximal batch size:     195
  | Minimal batch size:       3
  | Average batch size:     107.449
  | Standard deviation of batch sizes:      29.466

  Integration load balanced across    56 MPI tasks.
  Work distribution over tasks is as follows:
  Task     0 has       4358 integration points.
  Task     1 has       4397 integration points.
  Task     2 has       4428 integration points.
  Task     3 has       4386 integration points.
  Task     4 has       4394 integration points.
  Task     5 has       4431 integration points.
  Task     6 has       4393 integration points.
  Task     7 has       4428 integration points.
  Task     8 has       4469 integration points.
  Task     9 has       4433 integration points.
  Task    10 has       4391 integration points.
  Task    11 has       4387 integration points.
  Task    12 has       4393 integration points.
  Task    13 has       4356 integration points.
  Task    14 has       4383 integration points.
  Task    15 has       4425 integration points.
  Task    16 has       4395 integration points.
  Task    17 has       4397 integration points.
  Task    18 has       4396 integration points.
  Task    19 has       4399 integration points.
  Task    20 has       4422 integration points.
  Task    21 has       4359 integration points.
  Task    22 has       4350 integration points.
  Task    23 has       4436 integration points.
  Task    24 has       4426 integration points.
  Task    25 has       4440 integration points.
  Task    26 has       4356 integration points.
  Task    27 has       4430 integration points.
  Task    28 has       4354 integration points.
  Task    29 has       4449 integration points.
  Task    30 has       4370 integration points.
  Task    31 has       4430 integration points.
  Task    32 has       4434 integration points.
  Task    33 has       4370 integration points.
  Task    34 has       4391 integration points.
  Task    35 has       4348 integration points.
  Task    36 has       4392 integration points.
  Task    37 has       4434 integration points.
  Task    38 has       4389 integration points.
  Task    39 has       4431 integration points.
  Task    40 has       4357 integration points.
  Task    41 has       4351 integration points.
  Task    42 has       4444 integration points.
  Task    43 has       4434 integration points.
  Task    44 has       4349 integration points.
  Task    45 has       4378 integration points.
  Task    46 has       4425 integration points.
  Task    47 has       4439 integration points.
  Task    48 has       4427 integration points.
  Task    49 has       4389 integration points.
  Task    50 has       4437 integration points.
  Task    51 has       4389 integration points.
  Task    52 has       4355 integration points.
  Task    53 has       4429 integration points.
  Task    54 has       4392 integration points.
  Task    55 has       4443 integration points.
  Initializing partition tables, free-atom densities, potentials, etc. across the integration grid (initialize_grid_storage).
  | initialize_grid_storage: Actual outermost partition radius vs. multipole_radius_free
  | (-- VB: in principle, multipole_radius_free should be larger, hence this output)
  | Species        1: Confinement radius =              4.999999999999999 AA, multipole_radius_free =              5.054417573612229 AA.
  | Species        1: outer_partition_radius set to              5.054417573612229 AA .
  | Species        2: Confinement radius =              4.999999999999999 AA, multipole_radius_free =              5.019602836301480 AA.
  | Species        2: outer_partition_radius set to              5.019602836301480 AA .
  | The sparse table of interatomic distances needs         19.15 kbyte instead of        16.93 kbyte of memory.
  | Using the partition_type stratmann_smoother will reduce your memory usage.
  | Net number of integration points:   246488
  | of which are non-zero points    :   211060
  Renormalizing the initial density to the exact electron count on the 3D integration grid.
  | Initial density: Formal number of electrons (from input files) :     186.0000000000
  | Integrated number of electrons on 3D grid     :     185.9998050028
  | Charge integration error                      :      -0.0001949972
  | Normalization factor for density and gradient :       1.0000010484
  Renormalizing the free-atom superposition density to the exact electron count on the 3D integration grid.
  | Formal number of electrons (from input files) :     186.0000000000
  | Integrated number of electrons on 3D grid     :     185.9998301259
  | Charge integration error                      :      -0.0001698741
  | Normalization factor for density and gradient :       1.0000009133
  Obtaining max. number of non-zero basis functions in each batch (get_n_compute_maxes).
  | Maximal number of non-zero basis functions:      249 in task     0
  | Maximal number of non-zero basis functions:      249 in task     1
  | Maximal number of non-zero basis functions:      240 in task     2
  | Maximal number of non-zero basis functions:      242 in task     3
  | Maximal number of non-zero basis functions:      253 in task     4
  | Maximal number of non-zero basis functions:      243 in task     5
  | Maximal number of non-zero basis functions:      248 in task     6
  | Maximal number of non-zero basis functions:      243 in task     7
  | Maximal number of non-zero basis functions:      246 in task     8
  | Maximal number of non-zero basis functions:      248 in task     9
  | Maximal number of non-zero basis functions:      247 in task    10
  | Maximal number of non-zero basis functions:      245 in task    11
  | Maximal number of non-zero basis functions:      250 in task    12
  | Maximal number of non-zero basis functions:      244 in task    13
  | Maximal number of non-zero basis functions:      239 in task    14
  | Maximal number of non-zero basis functions:      241 in task    15
  | Maximal number of non-zero basis functions:      239 in task    16
  | Maximal number of non-zero basis functions:      238 in task    17
  | Maximal number of non-zero basis functions:      254 in task    18
  | Maximal number of non-zero basis functions:      251 in task    19
  | Maximal number of non-zero basis functions:      251 in task    20
  | Maximal number of non-zero basis functions:      251 in task    21
  | Maximal number of non-zero basis functions:      252 in task    22
  | Maximal number of non-zero basis functions:      246 in task    23
  | Maximal number of non-zero basis functions:      246 in task    24
  | Maximal number of non-zero basis functions:      253 in task    25
  | Maximal number of non-zero basis functions:      244 in task    26
  | Maximal number of non-zero basis functions:      251 in task    27
  | Maximal number of non-zero basis functions:      249 in task    28
  | Maximal number of non-zero basis functions:      245 in task    29
  | Maximal number of non-zero basis functions:      254 in task    30
  | Maximal number of non-zero basis functions:      252 in task    31
  | Maximal number of non-zero basis functions:      246 in task    32
  | Maximal number of non-zero basis functions:      251 in task    33
  | Maximal number of non-zero basis functions:      239 in task    34
  | Maximal number of non-zero basis functions:      252 in task    35
  | Maximal number of non-zero basis functions:      254 in task    36
  | Maximal number of non-zero basis functions:      246 in task    37
  | Maximal number of non-zero basis functions:      251 in task    38
  | Maximal number of non-zero basis functions:      241 in task    39
  | Maximal number of non-zero basis functions:      251 in task    40
  | Maximal number of non-zero basis functions:      247 in task    41
  | Maximal number of non-zero basis functions:      247 in task    42
  | Maximal number of non-zero basis functions:      247 in task    43
  | Maximal number of non-zero basis functions:      254 in task    44
  | Maximal number of non-zero basis functions:      239 in task    45
  | Maximal number of non-zero basis functions:      247 in task    46
  | Maximal number of non-zero basis functions:      241 in task    47
  | Maximal number of non-zero basis functions:      252 in task    48
  | Maximal number of non-zero basis functions:      250 in task    49
  | Maximal number of non-zero basis functions:      243 in task    50
  | Maximal number of non-zero basis functions:      233 in task    51
  | Maximal number of non-zero basis functions:      244 in task    52
  | Maximal number of non-zero basis functions:      244 in task    53
  | Maximal number of non-zero basis functions:      239 in task    54
  | Maximal number of non-zero basis functions:      240 in task    55
  Selecting the method for density update.
  Loop over occupied states selected for charge density update.
  Hamiltonian matrix size:
  | Size of matrix non-packed:                116403
  | Size of matrix packed:           80690
  Allocating        1.500 MB for KS_eigenvector
  Integrating Hamiltonian matrix: batch-based integration.
  Time summed over all CPUs for integration: real work       16.743 s, elapsed       30.457 s => Consider using load balancing!
  Integrating overlap matrix.
  Time summed over all CPUs for integration: real work        2.098 s, elapsed        4.399 s
  Decreasing sparse matrix size:
  | Tolerance:  0.1000E-12
  Hamiltonian matrix
  | Array has    78231 nonzero elements out of    80690 elements
  | Sparsity factor is 0.030
  Overlap matrix
  | Array has    76804 nonzero elements out of    80690 elements
  | Sparsity factor is 0.048
  New size of hamiltonian matrix:       78232
  Deallocating overlap matrix.

  Updating Kohn-Sham eigenvalues and eigenvectors using ELSI and the ELPA eigensolver.
  Overlap matrix is not singular
  | Lowest and highest eigenvalues :  0.8657E-03,  0.6930E+01
  Finished singularity check of overlap matrix
  | Time :     4.368 s
  Starting ELPA eigensolver
  Finished Cholesky decomposition
  | Time :     0.311 s
  Finished transformation to standard eigenproblem
  | Time :     0.592 s
  Finished solving standard eigenproblem
  | Time :     4.531 s
  Finished back-transformation of eigenvectors
  | Time :     0.272 s
  Starting ELPA eigensolver
  Finished transformation to standard eigenproblem
  | Time :     0.520 s
  Finished solving standard eigenproblem
  | Time :     4.634 s
  Finished back-transformation of eigenvectors
  | Time :     0.228 s

  Obtaining occupation numbers and electronic chemical potential using ELSI.
  | Note that, for insulating systems, the printed 'chemical potential' value is not uniquely defined.
  | It can be anywhere in the energy gap, as long as it correctly separates occupied and unoccupied states.
  | In systems with a gap, the physically relevant chemical potential is the VBM or HOMO.

  | Chemical potential (Fermi level):    -8.70475308 eV
  Writing Kohn-Sham eigenvalues.

  Spin-up eigenvalues:

  State    Occupation    Eigenvalue [Ha]    Eigenvalue [eV]
      1       1.00000         -10.187547         -277.21726
      2       1.00000         -10.186991         -277.20213
      3       1.00000         -10.186341         -277.18445
      4       1.00000         -10.186010         -277.17542
      5       1.00000         -10.185692         -277.16679
      6       1.00000         -10.185609         -277.16451
      7       1.00000         -10.185380         -277.15828
      8       1.00000         -10.185261         -277.15505
      9       1.00000         -10.185175         -277.15272
     10       1.00000         -10.185078         -277.15007
     11       1.00000         -10.184914         -277.14562
     12       1.00000         -10.184794         -277.14235
     13       1.00000         -10.184679         -277.13922
     14       1.00000         -10.184407         -277.13181
     15       1.00000         -10.184252         -277.12759
     16       1.00000         -10.184186         -277.12580
     17       1.00000         -10.183273         -277.10097
     18       1.00000         -10.182683         -277.08491
     19       1.00000         -10.181517         -277.05316
     20       1.00000         -10.181302         -277.04733
     21       1.00000         -10.180847         -277.03494
     22       1.00000         -10.179945         -277.01039
     23       1.00000         -10.179724         -277.00439
     24       1.00000         -10.179693         -277.00354
     25       1.00000         -10.177722         -276.94991
     26       1.00000         -10.177128         -276.93375
     27       1.00000         -10.177118         -276.93346
     28       1.00000         -10.176944         -276.92873
     29       1.00000          -1.002782          -27.28708
     30       1.00000          -0.983702          -26.76790
     31       1.00000          -0.977635          -26.60281
     32       1.00000          -0.964348          -26.24123
     33       1.00000          -0.943962          -25.68650
     34       1.00000          -0.918373          -24.99020
     35       1.00000          -0.894832          -24.34963
     36       1.00000          -0.877606          -23.88088
     37       1.00000          -0.871851          -23.72428
     38       1.00000          -0.865037          -23.53886
     39       1.00000          -0.864395          -23.52137
     40       1.00000          -0.857582          -23.33600
     41       1.00000          -0.834735          -22.71431
     42       1.00000          -0.821634          -22.35779
     43       1.00000          -0.779181          -21.20259
     44       1.00000          -0.762489          -20.74837
     45       1.00000          -0.747184          -20.33192
     46       1.00000          -0.744286          -20.25305
     47       1.00000          -0.732970          -19.94514
     48       1.00000          -0.725226          -19.73442
     49       1.00000          -0.711956          -19.37332
     50       1.00000          -0.710207          -19.32573
     51       1.00000          -0.672513          -18.30000
     52       1.00000          -0.662404          -18.02493
     53       1.00000          -0.650763          -17.70816
     54       1.00000          -0.641356          -17.45219
     55       1.00000          -0.639843          -17.41102
     56       1.00000          -0.631089          -17.17280
     57       1.00000          -0.618586          -16.83258
     58       1.00000          -0.615755          -16.75556
     59       1.00000          -0.598197          -16.27777
     60       1.00000          -0.592040          -16.11023
     61       1.00000          -0.588468          -16.01304
     62       1.00000          -0.578728          -15.74798
     63       1.00000          -0.573911          -15.61690
     64       1.00000          -0.563893          -15.34432
     65       1.00000          -0.560126          -15.24180
     66       1.00000          -0.557222          -15.16277
     67       1.00000          -0.556826          -15.15202
     68       1.00000          -0.551938          -15.01900
     69       1.00000          -0.545380          -14.84054
     70       1.00000          -0.530374          -14.43221
     71       1.00000          -0.526369          -14.32324
     72       1.00000          -0.519095          -14.12530
     73       1.00000          -0.518831          -14.11810
     74       1.00000          -0.513392          -13.97010
     75       1.00000          -0.507938          -13.82169
     76       1.00000          -0.501383          -13.64333
     77       1.00000          -0.494848          -13.46551
     78       1.00000          -0.491998          -13.38796
     79       1.00000          -0.489534          -13.32089
     80       1.00000          -0.485156          -13.20178
     81       1.00000          -0.475384          -12.93586
     82       1.00000          -0.473742          -12.89117
     83       1.00000          -0.471109          -12.81953
     84       1.00000          -0.458058          -12.46441
     85       1.00000          -0.432817          -11.77755
     86       1.00000          -0.409045          -11.13067
     87       1.00000          -0.398167          -10.83467
     88       1.00000          -0.390183          -10.61743
     89       1.00000          -0.386224          -10.50970
     90       1.00000          -0.382662          -10.41276
     91       1.00000          -0.373196          -10.15519
     92       1.00000          -0.342573           -9.32190
     93       1.00000          -0.333972           -9.08785
     94       0.00000          -0.276217           -7.51624
     95       0.00000          -0.232667           -6.33120
     96       0.00000          -0.203642           -5.54137
     97       0.00000          -0.202353           -5.50632
     98       0.00000          -0.199345           -5.42446
     99       0.00000          -0.190935           -5.19561
    100       0.00000          -0.177136           -4.82013
    101       0.00000          -0.167979           -4.57093
    102       0.00000          -0.115805           -3.15122
    103       0.00000          -0.097326           -2.64836
    104       0.00000          -0.084035           -2.28671
    105       0.00000          -0.059112           -1.60853
    106       0.00000          -0.052695           -1.43391
    107       0.00000          -0.047771           -1.29992
    108       0.00000          -0.042542           -1.15762
    109       0.00000          -0.039590           -1.07731
    110       0.00000          -0.028173           -0.76663
    111       0.00000          -0.023771           -0.64684
    112       0.00000          -0.019481           -0.53009
    113       0.00000          -0.012510           -0.34040
    114       0.00000          -0.010049           -0.27346
    115       0.00000          -0.000527           -0.01434
    116       0.00000           0.003725            0.10137
    117       0.00000           0.005534            0.15058
    118       0.00000           0.005868            0.15968
    119       0.00000           0.015224            0.41427
    120       0.00000           0.020785            0.56558
    121       0.00000           0.027842            0.75761
    122       0.00000           0.032542            0.88551
    123       0.00000           0.040782            1.10973
    124       0.00000           0.043078            1.17221
    125       0.00000           0.048243            1.31275
    126       0.00000           0.056772            1.54483
    127       0.00000           0.059697            1.62443
    128       0.00000           0.067341            1.83243
    129       0.00000           0.070572            1.92035
    130       0.00000           0.075931            2.06618
    131       0.00000           0.087521            2.38156
    132       0.00000           0.093482            2.54378
    133       0.00000           0.097381            2.64987
    134       0.00000           0.107467            2.92434
    135       0.00000           0.109380            2.97638
    136       0.00000           0.114978            3.12871
    137       0.00000           0.124360            3.38401
    138       0.00000           0.130484            3.55065
    139       0.00000           0.134179            3.65120
    140       0.00000           0.150714            4.10113
    141       0.00000           0.154222            4.19661
    142       0.00000           0.164193            4.46791
    143       0.00000           0.167490            4.55764
    144       0.00000           0.169144            4.60265
    145       0.00000           0.173561            4.72284
    146       0.00000           0.176716            4.80870
    147       0.00000           0.181992            4.95224
    148       0.00000           0.184885            5.03097
    149       0.00000           0.190917            5.19512
    150       0.00000           0.192645            5.24214
    151       0.00000           0.195929            5.33150
    152       0.00000           0.203440            5.53589
    153       0.00000           0.210712            5.73376
    154       0.00000           0.211757            5.76220
    155       0.00000           0.214283            5.83093
    156       0.00000           0.214977            5.84983
    157       0.00000           0.216741            5.89783
    158       0.00000           0.226198            6.15515
    159       0.00000           0.235645            6.41222
    160       0.00000           0.236575            6.43752
    161       0.00000           0.243282            6.62004
    162       0.00000           0.246994            6.72104
    163       0.00000           0.250178            6.80770
    164       0.00000           0.252666            6.87538
    165       0.00000           0.257729            7.01316
    166       0.00000           0.261298            7.11029
    167       0.00000           0.264087            7.18619
    168       0.00000           0.270239            7.35358
    169       0.00000           0.272359            7.41126
    170       0.00000           0.281620            7.66328
    171       0.00000           0.288181            7.84181
    172       0.00000           0.288820            7.85920
    173       0.00000           0.290534            7.90584
    174       0.00000           0.292730            7.96559
    175       0.00000           0.294483            8.01329
    176       0.00000           0.295426            8.03895
    177       0.00000           0.298884            8.13306
    178       0.00000           0.301469            8.20340
    179       0.00000           0.303038            8.24610
    180       0.00000           0.305258            8.30649
    181       0.00000           0.308174            8.38585
    182       0.00000           0.321974            8.76137
    183       0.00000           0.323265            8.79649
    184       0.00000           0.331202            9.01247
    185       0.00000           0.335247            9.12254
    186       0.00000           0.341880            9.30304
    187       0.00000           0.344553            9.37576
    188       0.00000           0.346769            9.43606
    189       0.00000           0.350922            9.54908
    190       0.00000           0.355038            9.66107
    191       0.00000           0.358969            9.76805
    192       0.00000           0.389706           10.60443
    193       0.00000           0.395382           10.75889
    194       0.00000           0.402886           10.96308
    195       0.00000           0.412143           11.21498
    196       0.00000           0.415492           11.30611
    197       0.00000           0.418459           11.38684
    198       0.00000           0.424496           11.55113
    199       0.00000           0.444187           12.08696
    200       0.00000           0.453282           12.33442
    201       0.00000           0.470795           12.81099
    202       0.00000           0.482498           13.12945
    203       0.00000           0.494496           13.45593
    204       0.00000           0.516348           14.05054

  Spin-down eigenvalues:

  State    Occupation    Eigenvalue [Ha]    Eigenvalue [eV]
      1       1.00000         -10.187547         -277.21726
      2       1.00000         -10.186991         -277.20213
      3       1.00000         -10.186341         -277.18445
      4       1.00000         -10.186010         -277.17542
      5       1.00000         -10.185692         -277.16679
      6       1.00000         -10.185609         -277.16451
      7       1.00000         -10.185380         -277.15828
      8       1.00000         -10.185261         -277.15505
      9       1.00000         -10.185175         -277.15272
     10       1.00000         -10.185078         -277.15007
     11       1.00000         -10.184914         -277.14562
     12       1.00000         -10.184794         -277.14235
     13       1.00000         -10.184679         -277.13922
     14       1.00000         -10.184407         -277.13181
     15       1.00000         -10.184252         -277.12759
     16       1.00000         -10.184186         -277.12580
     17       1.00000         -10.183273         -277.10097
     18       1.00000         -10.182683         -277.08491
     19       1.00000         -10.181517         -277.05316
     20       1.00000         -10.181302         -277.04733
     21       1.00000         -10.180847         -277.03494
     22       1.00000         -10.179945         -277.01039
     23       1.00000         -10.179724         -277.00439
     24       1.00000         -10.179693         -277.00354
     25       1.00000         -10.177722         -276.94991
     26       1.00000         -10.177128         -276.93375
     27       1.00000         -10.177118         -276.93346
     28       1.00000         -10.176944         -276.92873
     29       1.00000          -1.002782          -27.28708
     30       1.00000          -0.983702          -26.76790
     31       1.00000          -0.977635          -26.60281
     32       1.00000          -0.964348          -26.24123
     33       1.00000          -0.943962          -25.68650
     34       1.00000          -0.918373          -24.99020
     35       1.00000          -0.894832          -24.34963
     36       1.00000          -0.877606          -23.88088
     37       1.00000          -0.871851          -23.72428
     38       1.00000          -0.865037          -23.53886
     39       1.00000          -0.864395          -23.52137
     40       1.00000          -0.857582          -23.33600
     41       1.00000          -0.834735          -22.71431
     42       1.00000          -0.821634          -22.35779
     43       1.00000          -0.779181          -21.20259
     44       1.00000          -0.762489          -20.74837
     45       1.00000          -0.747184          -20.33192
     46       1.00000          -0.744286          -20.25305
     47       1.00000          -0.732970          -19.94514
     48       1.00000          -0.725226          -19.73442
     49       1.00000          -0.711956          -19.37332
     50       1.00000          -0.710207          -19.32573
     51       1.00000          -0.672513          -18.30000
     52       1.00000          -0.662404          -18.02493
     53       1.00000          -0.650763          -17.70816
     54       1.00000          -0.641356          -17.45219
     55       1.00000          -0.639843          -17.41102
     56       1.00000          -0.631089          -17.17280
     57       1.00000          -0.618586          -16.83258
     58       1.00000          -0.615755          -16.75556
     59       1.00000          -0.598197          -16.27777
     60       1.00000          -0.592040          -16.11023
     61       1.00000          -0.588468          -16.01304
     62       1.00000          -0.578728          -15.74798
     63       1.00000          -0.573911          -15.61690
     64       1.00000          -0.563893          -15.34432
     65       1.00000          -0.560126          -15.24180
     66       1.00000          -0.557222          -15.16277
     67       1.00000          -0.556826          -15.15202
     68       1.00000          -0.551938          -15.01900
     69       1.00000          -0.545380          -14.84054
     70       1.00000          -0.530374          -14.43221
     71       1.00000          -0.526369          -14.32324
     72       1.00000          -0.519095          -14.12530
     73       1.00000          -0.518831          -14.11810
     74       1.00000          -0.513392          -13.97010
     75       1.00000          -0.507938          -13.82169
     76       1.00000          -0.501383          -13.64333
     77       1.00000          -0.494848          -13.46551
     78       1.00000          -0.491998          -13.38796
     79       1.00000          -0.489534          -13.32089
     80       1.00000          -0.485156          -13.20178
     81       1.00000          -0.475384          -12.93586
     82       1.00000          -0.473742          -12.89117
     83       1.00000          -0.471109          -12.81953
     84       1.00000          -0.458058          -12.46441
     85       1.00000          -0.432817          -11.77755
     86       1.00000          -0.409045          -11.13067
     87       1.00000          -0.398167          -10.83467
     88       1.00000          -0.390183          -10.61743
     89       1.00000          -0.386224          -10.50970
     90       1.00000          -0.382662          -10.41276
     91       1.00000          -0.373196          -10.15519
     92       1.00000          -0.342573           -9.32190
     93       1.00000          -0.333972           -9.08785
     94       0.00000          -0.276217           -7.51624
     95       0.00000          -0.232667           -6.33120
     96       0.00000          -0.203642           -5.54137
     97       0.00000          -0.202353           -5.50632
     98       0.00000          -0.199345           -5.42446
     99       0.00000          -0.190935           -5.19561
    100       0.00000          -0.177136           -4.82013
    101       0.00000          -0.167979           -4.57093
    102       0.00000          -0.115805           -3.15122
    103       0.00000          -0.097326           -2.64836
    104       0.00000          -0.084035           -2.28671
    105       0.00000          -0.059112           -1.60853
    106       0.00000          -0.052695           -1.43391
    107       0.00000          -0.047771           -1.29992
    108       0.00000          -0.042542           -1.15762
    109       0.00000          -0.039590           -1.07731
    110       0.00000          -0.028173           -0.76663
    111       0.00000          -0.023771           -0.64684
    112       0.00000          -0.019481           -0.53009
    113       0.00000          -0.012510           -0.34040
    114       0.00000          -0.010049           -0.27346
    115       0.00000          -0.000527           -0.01434
    116       0.00000           0.003725            0.10137
    117       0.00000           0.005534            0.15058
    118       0.00000           0.005868            0.15968
    119       0.00000           0.015224            0.41427
    120       0.00000           0.020785            0.56558
    121       0.00000           0.027842            0.75761
    122       0.00000           0.032542            0.88551
    123       0.00000           0.040782            1.10973
    124       0.00000           0.043078            1.17221
    125       0.00000           0.048243            1.31275
    126       0.00000           0.056772            1.54483
    127       0.00000           0.059697            1.62443
    128       0.00000           0.067341            1.83243
    129       0.00000           0.070572            1.92035
    130       0.00000           0.075931            2.06618
    131       0.00000           0.087521            2.38156
    132       0.00000           0.093482            2.54378
    133       0.00000           0.097381            2.64987
    134       0.00000           0.107467            2.92434
    135       0.00000           0.109380            2.97638
    136       0.00000           0.114978            3.12871
    137       0.00000           0.124360            3.38401
    138       0.00000           0.130484            3.55065
    139       0.00000           0.134179            3.65120
    140       0.00000           0.150714            4.10113
    141       0.00000           0.154222            4.19661
    142       0.00000           0.164193            4.46791
    143       0.00000           0.167490            4.55764
    144       0.00000           0.169144            4.60265
    145       0.00000           0.173561            4.72284
    146       0.00000           0.176716            4.80870
    147       0.00000           0.181992            4.95224
    148       0.00000           0.184885            5.03097
    149       0.00000           0.190917            5.19512
    150       0.00000           0.192645            5.24214
    151       0.00000           0.195929            5.33150
    152       0.00000           0.203440            5.53589
    153       0.00000           0.210712            5.73376
    154       0.00000           0.211757            5.76220
    155       0.00000           0.214283            5.83093
    156       0.00000           0.214977            5.84983
    157       0.00000           0.216741            5.89783
    158       0.00000           0.226198            6.15515
    159       0.00000           0.235645            6.41222
    160       0.00000           0.236575            6.43752
    161       0.00000           0.243282            6.62004
    162       0.00000           0.246994            6.72104
    163       0.00000           0.250178            6.80770
    164       0.00000           0.252666            6.87538
    165       0.00000           0.257729            7.01316
    166       0.00000           0.261298            7.11029
    167       0.00000           0.264087            7.18619
    168       0.00000           0.270239            7.35358
    169       0.00000           0.272359            7.41126
[...]
     35       1.00000          -0.705260          -19.19111
     36       1.00000          -0.690641          -18.79328
     37       1.00000          -0.681229          -18.53718
     38       1.00000          -0.678341          -18.45861
     39       1.00000          -0.669153          -18.20859
     40       1.00000          -0.666095          -18.12537
     41       1.00000          -0.642269          -17.47703
     42       1.00000          -0.624628          -16.99699
     43       1.00000          -0.594141          -16.16740
     44       1.00000          -0.574105          -15.62218
     45       1.00000          -0.565535          -15.38899
     46       1.00000          -0.559704          -15.23032
     47       1.00000          -0.542438          -14.76050
     48       1.00000          -0.540564          -14.70949
     49       1.00000          -0.522303          -14.21259
     50       1.00000          -0.519845          -14.14569
     51       1.00000          -0.487540          -13.26663
     52       1.00000          -0.482970          -13.14227
     53       1.00000          -0.470913          -12.81419
     54       1.00000          -0.467655          -12.72553
     55       1.00000          -0.453392          -12.33741
     56       1.00000          -0.451736          -12.29236
     57       1.00000          -0.435540          -11.85164
     58       1.00000          -0.423505          -11.52415
     59       1.00000          -0.417125          -11.35055
     60       1.00000          -0.414191          -11.27070
     61       1.00000          -0.393996          -10.72117
     62       1.00000          -0.389162          -10.58964
     63       1.00000          -0.388265          -10.56524
     64       1.00000          -0.384355          -10.45883
     65       1.00000          -0.381982          -10.39427
     66       1.00000          -0.379043          -10.31428
     67       1.00000          -0.371228          -10.10164
     68       1.00000          -0.369425          -10.05257
     69       1.00000          -0.363409           -9.88886
     70       1.00000          -0.361621           -9.84020
     71       1.00000          -0.352008           -9.57863
     72       1.00000          -0.347289           -9.45020
     73       1.00000          -0.343124           -9.33689
     74       1.00000          -0.337292           -9.17819
     75       1.00000          -0.334210           -9.09432
     76       1.00000          -0.325134           -8.84734
     77       1.00000          -0.316385           -8.60927
     78       1.00000          -0.315161           -8.57596
     79       1.00000          -0.310310           -8.44396
     80       1.00000          -0.309297           -8.41640
     81       1.00000          -0.301337           -8.19980
     82       1.00000          -0.298911           -8.13379
     83       1.00000          -0.289279           -7.87167
     84       1.00000          -0.283839           -7.72366
     85       1.00000          -0.280435           -7.63102
     86       1.00000          -0.253498           -6.89804
     87       1.00000          -0.244438           -6.65150
     88       1.00000          -0.232499           -6.32662
     89       1.00000          -0.229498           -6.24495
     90       1.00000          -0.223674           -6.08648
     91       1.00000          -0.214252           -5.83010
     92       1.00000          -0.183330           -4.98867
     93       1.00000          -0.168518           -4.58562
     94       0.00000          -0.120950           -3.29122
     95       0.00000          -0.073188           -1.99154
     96       0.00000          -0.050134           -1.36421
     97       0.00000          -0.045820           -1.24682
     98       0.00000          -0.040142           -1.09231
     99       0.00000          -0.027318           -0.74336
    100       0.00000          -0.019746           -0.53731
    101       0.00000          -0.004994           -0.13589
    102       0.00000           0.044125            1.20071
    103       0.00000           0.045877            1.24837
    104       0.00000           0.047009            1.27918
    105       0.00000           0.054885            1.49350
    106       0.00000           0.062490            1.70043
    107       0.00000           0.063445            1.72643
    108       0.00000           0.068434            1.86218
    109       0.00000           0.079163            2.15414
    110       0.00000           0.081083            2.20638
    111       0.00000           0.085205            2.31854
    112       0.00000           0.091614            2.49295
    113       0.00000           0.104196            2.83532
    114       0.00000           0.110860            3.01664
    115       0.00000           0.117351            3.19329
    116       0.00000           0.121972            3.31903
    117       0.00000           0.133501            3.63275
    118       0.00000           0.136291            3.70865
    119       0.00000           0.148593            4.04343
    120       0.00000           0.154974            4.21706
    121       0.00000           0.165488            4.50315
    122       0.00000           0.171010            4.65342
    123       0.00000           0.179003            4.87093
    124       0.00000           0.186868            5.08494
    125       0.00000           0.194361            5.28883
    126       0.00000           0.200811            5.46436
    127       0.00000           0.206547            5.62043
    128       0.00000           0.213061            5.79768
    129       0.00000           0.217500            5.91847
    130       0.00000           0.223260            6.07522
    131       0.00000           0.233396            6.35102
    132       0.00000           0.236082            6.42411
    133       0.00000           0.239518            6.51760
    134       0.00000           0.253744            6.90473
    135       0.00000           0.256693            6.98496
    136       0.00000           0.260120            7.07822
    137       0.00000           0.262719            7.14894
    138       0.00000           0.264274            7.19127
    139       0.00000           0.268520            7.30680
    140       0.00000           0.274055            7.45742
    141       0.00000           0.278634            7.58203
    142       0.00000           0.282089            7.67602
    143       0.00000           0.283897            7.72524
    144       0.00000           0.292347            7.95518
    145       0.00000           0.293908            7.99764
    146       0.00000           0.304052            8.27367
    147       0.00000           0.306864            8.35019
    148       0.00000           0.311803            8.48460
    149       0.00000           0.315379            8.58189
    150       0.00000           0.318743            8.67344
    151       0.00000           0.324840            8.83934
    152       0.00000           0.330367            8.98973
    153       0.00000           0.334831            9.11121
    154       0.00000           0.337376            9.18046
    155       0.00000           0.340703            9.27099
    156       0.00000           0.343477            9.34648
    157       0.00000           0.349753            9.51727
    158       0.00000           0.360839            9.81893
    159       0.00000           0.365549            9.94709
    160       0.00000           0.369110           10.04401
    161       0.00000           0.377656           10.27654
    162       0.00000           0.380826           10.36279
    163       0.00000           0.390052           10.61385
    164       0.00000           0.392111           10.66989
    165       0.00000           0.393512           10.70800
    166       0.00000           0.394093           10.72381
    167       0.00000           0.395594           10.76467
    168       0.00000           0.397419           10.81433
    169       0.00000           0.405331           11.02961
    170       0.00000           0.407142           11.07891
    171       0.00000           0.415085           11.29505
    172       0.00000           0.418916           11.39928
    173       0.00000           0.430955           11.72689
    174       0.00000           0.432578           11.77104
    175       0.00000           0.436698           11.88315
    176       0.00000           0.445515           12.12309
    177       0.00000           0.448941           12.21629
    178       0.00000           0.452737           12.31961
    179       0.00000           0.455060           12.38282
    180       0.00000           0.456710           12.42770
    181       0.00000           0.458590           12.47887
    182       0.00000           0.462693           12.59052
    183       0.00000           0.466171           12.68516
    184       0.00000           0.477290           12.98771
    185       0.00000           0.479103           13.03705
    186       0.00000           0.486213           13.23052
    187       0.00000           0.506315           13.77753
    188       0.00000           0.513070           13.96134
    189       0.00000           0.516644           14.05860
    190       0.00000           0.527957           14.36644
    191       0.00000           0.536200           14.59073
    192       0.00000           0.542651           14.76628
    193       0.00000           0.545511           14.84411
    194       0.00000           0.547102           14.88741
    195       0.00000           0.565507           15.38823
    196       0.00000           0.574848           15.64240
    197       0.00000           0.578130           15.73173
    198       0.00000           0.594235           16.16995
    199       0.00000           0.595002           16.19084
    200       0.00000           0.602366           16.39121
    201       0.00000           0.611383           16.63658
    202       0.00000           0.613690           16.69937
    203       0.00000           0.626149           17.03837
    204       0.00000           0.651307           17.72296

  Current spin moment of the entire structure :
  | N = N_up - N_down :    0.00
  | S                 :    0.00
  | J                 :    1.00

  Highest occupied state (VBM) at     -4.58561902 eV
  | Occupation number:      1.00000000
  | Spin channel:        1

  Lowest unoccupied state (CBM) at    -3.29121590 eV
  | Occupation number:      0.00000000
  | Spin channel:        1

  Overall HOMO-LUMO gap:      1.29440311 eV.

  Total energy components:
  | Sum of eigenvalues            :        -613.71413369 Ha      -16700.01126482 eV
  | XC energy correction          :        -158.53291000 Ha       -4313.89996991 eV
  | XC potential correction       :         203.00149102 Ha        5523.95162617 eV
  | Free-atom electrostatic energy:        -471.06743792 Ha      -12818.39717855 eV
  | Hartree energy correction     :         -37.90780702 Ha       -1031.52391230 eV
  | Entropy correction            :           0.00000000 Ha           0.00000000 eV
  | ---------------------------
  | Total energy                  :       -1078.22079760 Ha      -29339.88069941 eV
  | Total energy, T -> 0          :       -1078.22079760 Ha      -29339.88069941 eV  <-- do not rely on this value for anything but (periodic) metals
  | Electronic free energy        :       -1078.22079760 Ha      -29339.88069941 eV

  Derived energy quantities:
  | Kinetic energy                :        1076.73289552 Ha       29299.39282377 eV
  | Electrostatic energy          :       -1996.42078312 Ha      -54325.37355327 eV
  | Energy correction for multipole
  | error in Hartree potential    :           0.37186601 Ha          10.11898886 eV
  | Sum of eigenvalues per atom                           :        -363.04372315 eV
  | Total energy (T->0) per atom                          :        -637.82349347 eV  <-- do not rely on this value for anything but (periodic) metals
  | Electronic free energy per atom                       :        -637.82349347 eV
  End evaluation of scaled ZORA corrections.
  | Time for scaled ZORA corrections            :        1.567 s           0.696 s
------------------------------------------------------------

  Energy and forces in a compact form:
  | Total energy uncorrected      :         -0.293398806994071E+05 eV
  | Total energy corrected        :         -0.293398806994071E+05 eV  <-- do not rely on this value for anything but (periodic) metals
  | Electronic free energy        :         -0.293398806994071E+05 eV

  ------------------------------------ 
  Start decomposition of the XC Energy 
  ------------------------------------ 
  X and C from original XC functional choice 
  Hartree-Fock Energy :          0.000000000 Ha              0.000000000 eV
  X Energy            :       -152.217402542 Ha          -4142.046268162 eV
  C Energy            :         -6.315507458 Ha           -171.853701747 eV
  XC Energy w/o HF    :       -158.532910000 Ha          -4313.899969909 eV
  Total XC Energy     :       -158.532910000 Ha          -4313.899969909 eV
  ------------------------------------ 
  LDA X and C from self-consistent density 
  X Energy LDA        :       -137.088537757 Ha          -3730.368911457 eV
  C Energy LDA        :        -11.983701048 Ha           -326.093096949 eV
  ------------------------------------ 
  End decomposition of the XC Energy 
  ------------------------------------ 

------------------------------------------------------------

------------------------------------------------------------------------------
  Final output of selected total energy values:

  The following output summarizes some interesting total energy values
  at the end of a run (AFTER all relaxation, molecular dynamics, etc.).

  | Total energy of the DFT / Hartree-Fock s.c.f. calculation      :         -29339.880699407 eV
  | Final zero-broadening corrected energy (caution - metals only) :         -29339.880699407 eV
  | For reference only, the value of 1 Hartree used in FHI-aims is :             27.211384500 eV

  Before relying on these values, please be sure to understand exactly which
  total energy value is referred to by a given number. Different objects may
  all carry the same name 'total energy'. Definitions:

  Total energy of the DFT / Hartree-Fock s.c.f. calculation:
  | Note that this energy does not include ANY quantities calculated after the
  | s.c.f. cycle, in particular not ANY RPA, MP2, etc. many-body perturbation terms.
  | Scalar relativistic effects have been included in the 'scaled ZORA' approximation.

  Final zero-broadening corrected energy:
  | For metallic systems only, a broadening of the occupation numbers at the Fermi
  | level can be extrapolated back to zero broadening by an electron-gas inspired
  | formula. For all systems that are not real metals, this value can be
  | meaningless and should be avoided.

------------------------------------------------------------------------------
  Methods described in the following list of references were used in this FHI-aims run.
  If you publish the results, please make sure to cite these reference if they apply.
  FHI-aims is an academic code, and for our developers (often, Ph.D. students
  and postdocs), scientific credit in the community is essential.
  Thank you for helping us!

  For any use of FHI-aims, please cite:

    Volker Blum, Ralf Gehrke, Felix Hanke, Paula Havu, Ville Havu,
    Xinguo Ren, Karsten Reuter, and Matthias Scheffler
    'Ab initio molecular simulations with numeric atom-centered orbitals'
    Computer Physics Communications 180, 2175-2196 (2009)
    http://doi.org/10.1016/j.cpc.2009.06.022


  For calculations of electronic coupling values using the
  Fragment molecular orbital scheme (FO-DFT), please cite:

    Christoph Schober, Karsten Reuter, Harald Oberhofer
    'Critical analysis of fragment-orbital DFT schemes
    for the calculation of electronic coupling values'
    Journal of Chemical Physics, 144, 054103 (2016).


  The ELSI infrastructure was used in your run to solve the Kohn-Sham electronic structure.
  Please check out http://elsi-interchange.org to learn more.
  If scalability is important for your project, please acknowledge ELSI by citing:

    V. W-z. Yu, F. Corsetti, A. Garcia, W. P. Huhn, M. Jacquelin, W. Jia,
    B. Lange, L. Lin, J. Lu, W. Mi, A. Seifitokaldani, A. Vazquez-Mayagoitia,
    C. Yang, H. Yang, and V. Blum
    'ELSI: A unified software interface for Kohn-Sham electronic structure solvers'
    Computer Physics Communications 222, 267-285 (2018).
    http://doi.org/10.1016/j.cpc.2017.09.007


  For the real-space grid partitioning and parallelization used in this calculation, please cite:

    Ville Havu, Volker Blum, Paula Havu, and Matthias Scheffler,
    'Efficient O(N) integration for all-electron electronic structure calculation'
    'using numerically tabulated basis functions'
    Journal of Computational Physics 228, 8367-8379 (2009).
    http://doi.org/10.1016/j.jcp.2009.08.008

  Of course, there are many other important community references, e.g., those cited in the
  above references. Our list is limited to references that describe implementations in the
  FHI-aims code. The reason is purely practical (length of this list) - please credit others as well.

------------------------------------------------------------
          Leaving FHI-aims.
          Date     :  20241106, Time     :  115120.393

          Computational steps:
          | Number of self-consistency cycles          :           13
          | Number of SCF (re)initializations          :            1

          Detailed time accounting                     :  max(cpu_time)    wall_clock(cpu1)
          | Total time                                  :      211.652 s         211.675 s
          | Preparation time                            :        0.184 s           0.355 s
          | Boundary condition initalization            :        0.000 s           0.025 s
          | Grid partitioning                           :        1.683 s           1.696 s
          | Preloading free-atom quantities on grid     :        0.382 s           0.404 s
          | Free-atom superposition energy              :        0.167 s           0.193 s
          | Total time for integrations                 :       10.483 s          10.852 s
          | Total time for solution of K.-S. equations  :      157.142 s         157.548 s
          | Total time for density update               :        5.500 s           5.762 s
          | Total time for mixing                       :        0.983 s           1.308 s
          | Total time for Hartree multipole update     :       20.066 s          20.429 s
          | Total time for Hartree multipole sum        :        5.354 s           5.685 s
          | Total time for total energy evaluation      :        0.014 s           0.350 s
          | Total time for scaled ZORA corrections      :        1.567 s           0.696 s

          Partial memory accounting:
          | Residual value for overall tracked memory usage across tasks:     0.000000 MB (should be 0.000000 MB)
          | Peak values for overall tracked memory usage:
          |   Minimum:       10.089 MB (on task 51 after allocating zora_vector2)
          |   Maximum:       10.773 MB (on task 36 after allocating zora_vector2)
          |   Average:       10.516 MB
          | Largest tracked array allocation:
          |   Minimum:        2.080 MB (zora_vector1 on task 51)
          |   Maximum:        2.267 MB (zora_vector1 on task 18)
          |   Average:        2.200 MB
          Note:  These values currently only include a subset of arrays which are explicitly tracked.
          The "true" memory usage will be greater.

          Have a nice day.
------------------------------------------------------------
